25
Lattice="29.09277 0.0 0.0 0.0 29.09277 0.0 0.0 0.0 29.09277" Properties=species:S:1:pos:R:3 dft_energy_ryd=-199.16014752 molecule_idx=9 crystal_idx=8 pbc="F F F"
H       10.37937980      13.92222440     -15.98634532
H       11.04813293      15.37424967     -14.10163756
H       11.15160702      14.87181682     -17.27177848
C       11.33023291      14.09692279     -16.50939989
H       11.60482717      13.17499635     -17.04130872
C       12.09336142      15.16973094     -14.33946069
C       12.41204909      14.51763762     -15.54311776
H       12.83873583      16.05532632     -12.50245871
C       13.08627457      15.55930312     -13.44101063
C       13.76615751      14.28394064     -15.81878344
H       14.04353508      13.76973825     -16.74390204
C       14.43419731      15.31535405     -13.73903449
C       14.78682501      14.67545347     -14.94379924
O       15.36902382      15.68886300     -12.79055039
H       15.93554588      12.98858089     -12.91073406
C       16.25258163      14.42278246     -15.24725417
H       16.38297453      13.45237825     -15.74752632
H       16.64210541      15.19581264     -15.93142340
C       16.76747447      15.61722371     -13.26867089
H       16.94405850      16.50832790     -13.89181821
C       16.96753881      13.20284896     -13.24489708
N       17.08232292      14.44341514     -14.02650249
H       17.31721249      12.36409127     -13.86187481
H       17.36185230      15.66096822     -12.34858086
H       17.61388582      13.27990540     -12.36002246
36
Lattice="47.86952688 0.0 0.0 0.0 47.86952688 0.0 0.0 0.0 47.86952688" Properties=species:S:1:pos:R:3 dft_energy_ryd=-267.15151335 molecule_idx=10 crystal_idx=9 pbc="F F F"
H       20.63175603      22.38432964      30.11603702
H       20.85553510      21.47484567      27.82351836
C       21.24210692      22.90385249      29.37746920
C       21.36496788      22.39716756      28.10861410
H       21.80734696      24.49589000      30.76185709
H       21.81773947      21.63107540      25.55564276
C       21.91302342      24.11562743      29.74586128
C       22.16435097      23.06374446      27.12292023
C       22.31875040      22.56174936      25.83243083
C       22.68207126      24.79204221      28.83292597
H       22.78114844      21.78501214      23.29201210
C       22.83729103      24.30340632      27.49444151
C       23.11279548      23.22280114      24.86671539
H       23.19774598      25.71403445      29.10811463
C       23.28103793      22.71641401      23.56791892
C       23.61423111      24.96968049      26.54899276
H       23.72903265      21.95156121      21.02103587
C       23.77868700      24.47123203      25.23587806
C       24.07022913      23.37771192      22.61313008
H       24.11984400      25.89736690      26.82790408
C       24.23461731      22.87923531      21.30004232
C       24.56785294      25.13259198      24.28106582
H       24.65123594      22.13491944      18.74077485
C       24.73609745      24.62615777      22.98220570
C       25.01166153      23.54542232      20.35455109
H       25.06778204      26.06396438      24.55691212
C       25.16696411      23.05686789      19.01604277
C       25.53011585      25.28700069      22.01632017
C       25.68473280      24.78498550      20.72589161
C       25.93580862      23.73341019      18.10309614
H       26.03112159      26.21767695      22.29316642
H       26.04152795      23.35307391      17.08711419
C       26.48400807      25.45175974      19.74026621
C       26.60675412      24.94519786      18.47140969
H       26.99340357      26.37408145      20.02541160
H       27.21713427      25.46461906      17.73281835
24
Lattice="31.00762728 0.0 0.0 0.0 31.00762728 0.0 0.0 0.0 31.00762728" Properties=species:S:1:pos:R:3 dft_energy_ryd=-245.0128725 molecule_idx=11 crystal_idx=10 pbc="F F F"
H       13.10899157      13.72082049     -13.42155913
H       13.46467135      18.11744772     -14.08860094
H       13.82371462      15.87365812     -13.69029123
N       13.90062740      18.16516344     -15.00913701
C       14.12350892      13.49266926     -13.05035222
H       14.14793878      12.48334952     -12.62505271
H       14.39915892      14.23041284     -12.27696040
H       14.39786311      19.05296502     -15.09307020
C       14.52597731      15.84786507     -14.52301213
C       14.69789657      17.02102818     -15.28146955
O       15.07604402      13.48588225     -14.11914384
C       15.21637818      14.67102577     -14.81665938
C       15.60341144      17.01194140     -16.35643370
H       15.51417420      19.03219513     -16.80576117
N       15.74579295      18.12925003     -17.21228434
C       16.13985548      14.66614186     -15.89008211
C       16.32368007      15.83375970     -16.63206688
H       16.64785170      18.16712817     -17.68298707
O       16.80217535      13.47636555     -16.12464282
H       17.03156519      15.84577141     -17.46037081
H       17.11802357      13.66429048     -18.18989163
C       17.67345022      13.45135365     -17.26035704
H       18.08299925      12.43634348     -17.29519328
H       18.49364767      14.18256933     -17.15401840
36
Lattice="39.80213748 0.0 0.0 0.0 39.80213748 0.0 0.0 0.0 39.80213748" Properties=species:S:1:pos:R:3 dft_energy_ryd=-458.59538848 molecule_idx=12 crystal_idx=11 pbc="F F F"
N       17.20267854      20.27187458     -24.10228770
O       17.35853882      21.00295365     -18.66352561
N       17.36601755      20.10761591     -22.98068063
N       17.39907805      19.78893875     -21.77619967
H       17.40907751      19.14980837     -17.05153518
N       17.80185571      22.05557963     -21.15203972
C       17.86774941      20.18922014     -19.42897085
C       17.92023791      18.42939927     -17.68946103
H       18.02274015      16.88208121     -16.19357886
C       18.19123502      20.64759420     -20.90370965
C       18.22720960      18.80538995     -19.01319913
N       18.22646866      22.91908864     -20.36614346
C       18.26894784      17.16651053     -17.21688397
N       18.55575937      23.83332724     -19.75588887
C       18.88200434      17.88643779     -19.85686763
C       18.93993027      16.26568374     -18.05537421
H       19.10316806      18.13575655     -20.89243033
H       19.22178239      15.28020452     -17.68311842
C       19.24411741      16.62809564     -19.37177511
C       19.72482510      20.52179699     -21.20377065
H       19.76176559      15.92779749     -20.02731871
O       20.17942141      20.03950100     -22.23125057
O       20.39517677      21.04720442     -20.16076193
H       21.69088024      21.20534707     -17.95835094
H       21.84898508      22.76376151     -18.81731673
C       21.90399688      21.01892244     -20.10921142
H       21.89025817      19.03341121     -19.23402747
H       22.02370080      22.79340199     -21.35053106
H       22.09702111      19.04707894     -21.01351093
C       22.19428033      21.72180605     -18.78638956
C       22.35461709      19.55948392     -20.07931202
H       22.31273800      21.26399516     -22.23636274
C       22.47804393      21.79492488     -21.29275731
H       23.27719917      21.71232007     -18.60318104
H       23.44580951      19.53105016     -19.95251174
H       23.55905035      21.91900241     -21.13613108
30
Lattice="44.24900508 0.0 0.0 0.0 44.24900508 0.0 0.0 0.0 44.24900508" Properties=species:S:1:pos:R:3 dft_energy_ryd=-387.47204423 molecule_idx=18 crystal_idx=17 pbc="T T T"
O       15.10250347      22.80331759      21.65138670
C       16.30878036      22.77416790      21.56957523
C       17.37888144      22.10625321      20.61263185
O       17.37275292      21.40794032      19.59689998
C       17.53011653      23.37141849      22.38021172
O       17.69487702      24.05638256      23.39266119
C       18.40817778      22.70914625      21.43683754
N       19.78656235      22.63971720      21.36230841
H       19.69280592      21.89889197      19.40948520
H       19.98637734      23.41001529      23.29337903
C       20.38539598      22.17701046      20.20339248
C       20.55251489      23.01622985      22.44862777
C       21.75502194      22.05685968      20.13946631
C       21.92511239      22.88229587      22.40328021
H       22.22902725      21.69753479      19.22767730
H       22.51080612      23.18258535      23.27035733
C       22.55791390      22.37779163      21.25082399
H       23.23349410      20.87291535      23.39225024
C       24.04526993      22.22654152      21.11971801
C       24.29544453      21.11597737      23.38739184
O       24.56393493      22.42005777      20.00883559
H       24.67432544      20.10705059      25.25549472
C       24.85228053      21.82551508      22.30548784
C       25.10953340      20.67457864      24.43307649
C       26.23649976      22.08423459      22.28873721
C       26.48101768      20.95074591      24.41566982
H       26.65428891      22.61323744      21.43257428
C       27.04222808      21.65820233      23.34240375
H       27.11489256      20.60867834      25.23423505
H       28.11174338      21.86728747      23.32770370
15
Lattice="24.06600504 0.0 0.0 0.0 24.06600504 0.0 0.0 0.0 24.06600504" Properties=species:S:1:pos:R:3 dft_energy_ryd=-227.22086794 molecule_idx=27 crystal_idx=24 pbc="F F F"
H       10.01202602      11.00556141     -10.77738890
H       10.24960158      12.55396490      -9.09754318
O       11.00586964      13.09387161      -9.39622091
C       10.86894445      11.50390962     -11.23459604
H       10.93914451      10.20416890     -12.97101023
C       11.46256383      12.60645478     -10.59513424
C       11.37600921      11.05346222     -12.44990438
O       12.44449610      10.27641173     -14.85078240
C       12.47719907      11.70725000     -13.01124803
C       12.56479117      13.25938900     -11.17208382
H       13.00302466      14.11450223     -10.66056177
N       13.02636037      11.22348622     -14.29051078
C       13.07617064      12.80477086     -12.38171660
O       14.04122847      11.78842148     -14.73787714
H       13.93190177      13.28370645     -12.85275294
16
Lattice="25.17737796 0.0 0.0 0.0 25.17737796 0.0 0.0 0.0 25.17737796" Properties=species:S:1:pos:R:3 dft_energy_ryd=-184.9478456 molecule_idx=29 crystal_idx=26 pbc="F F F"
H       10.38913974      11.99092157     -10.87541666
H       11.09354798      10.47125132     -13.26918052
N       11.19447485      12.50606046     -11.20995771
O       11.25344423      14.12307559      -9.47943274
C       11.68716092      13.62286669     -10.51849008
C       11.88198994      11.22284632     -13.29952347
C       11.96679026      12.22219081     -12.33461039
N       12.78895562      14.03642225     -11.28227941
H       12.81478670      10.44731722     -15.08324674
C       12.85084238      11.21953641     -14.31597256
C       12.98877007      13.20155370     -12.37979974
H       13.36411770      14.82196312     -11.00318741
C       13.86125589      12.19080438     -14.36153272
C       13.94356662      13.20265018     -13.39157177
H       14.59512143      12.16458285     -15.16568142
H       14.72811693      13.95803846     -13.43219795
20
Lattice="31.61604852 0.0 0.0 0.0 31.61604852 0.0 0.0 0.0 31.61604852" Properties=species:S:1:pos:R:3 dft_energy_ryd=-294.13786053 molecule_idx=30 crystal_idx=27 pbc="F F F"
N       12.44151387      19.09554264     -14.30289566
N       12.46229872      19.43525156     -15.65811926
N       13.18086688      18.13554795     -13.78661942
N       13.23625067      18.83758631     -16.53970084
C       13.97480252      17.48809615     -14.67260580
C       14.01076310      17.84639473     -16.03867887
N       14.83541542      16.46017891     -14.45362141
N       14.89464553      17.04951806     -16.69063208
N       15.33243048      16.26492821     -15.68932180
H       15.90875207      14.22883180     -14.07939944
C       16.31446585      15.25371214     -15.93541374
C       16.51379989      14.24552426     -14.98325169
H       16.87350331      16.10139609     -17.84060781
C       17.05857689      15.30629207     -17.12213775
C       17.48796581      13.27744651     -15.22859028
H       17.64607280      12.48239942     -14.50048350
C       18.03339542      14.33383417     -17.34445572
C       18.25279408      13.32195065     -16.40126534
H       18.62743807      14.37244821     -18.25724690
H       19.01963884      12.56851033     -16.58034288
19
Lattice="28.286110439999998 0.0 0.0 0.0 28.286110439999998 0.0 0.0 0.0 28.286110439999998" Properties=species:S:1:pos:R:3 dft_energy_ryd=-309.71919783 molecule_idx=32 crystal_idx=29 pbc="F F F"
H       11.46877583      14.43417852     -12.39317775
H       12.12299057      12.02075916     -12.71965920
C       12.35682393      14.15813673     -12.95990099
C       12.71580934      12.83382140     -13.13496708
O       12.76911258      16.46376096     -13.28653186
C       13.14519282      15.19554856     -13.50773133
H       13.48867577      17.03543334     -13.74060279
O       13.56716447      10.25078091     -13.50377233
C       13.87817069      12.52737190     -13.86408450
N       14.28677876      11.12300371     -14.02202366
C       14.31141124      14.87304023     -14.27514904
C       14.66316895      13.52622424     -14.43018499
O       14.80086731      17.19265466     -14.60229838
C       15.09477025      15.99012344     -14.85888373
O       15.33128543      10.88509260     -14.65984301
H       15.55277646      13.21249285     -14.97460245
N       16.14292996      15.71005211     -15.67874411
H       16.36100898      14.77084746     -15.98628592
H       16.63737834      16.49176890     -16.09664854
24
Lattice="35.18343864 0.0 0.0 0.0 35.18343864 0.0 0.0 0.0 35.18343864" Properties=species:S:1:pos:R:3 dft_energy_ryd=-286.6386975 molecule_idx=33 crystal_idx=30 pbc="F F F"
H       15.21196121      14.08792120     -19.76182594
H       15.22701054      13.22440236     -17.44316806
C       15.69648872      14.66907169     -18.97672790
C       15.70599177      14.17932774     -17.66229668
H       16.30839544      16.28835932     -20.31072116
C       16.30603571      15.89490991     -19.29405598
C       16.32760704      14.90079214     -16.62810474
H       16.34635655      14.53297355     -15.60216615
C       16.91626158      16.60390117     -18.26530816
C       16.92798325      16.11213830     -16.94867541
H       17.01405116      20.98784591     -16.48605244
C       17.63003750      17.92871767     -18.30416458
C       17.65414614      17.08614751     -16.04891528
H       17.75274555      20.76568276     -18.12452369
O       17.80728734      18.64890626     -19.31299136
O       17.84468074      16.94961083     -14.82894912
C       17.94560456      20.95310706     -17.06124637
C       18.05048824      18.16970108     -16.93997217
H       18.53239206      21.86631207     -16.90347205
S       18.90361173      19.54336007     -16.41821872
H       19.92760608      19.63010485     -18.58266521
C       20.31862241      19.67944812     -17.55906743
H       20.82895347      20.62921118     -17.35554437
H       20.98007697      18.83244291     -17.34556272
34
Lattice="45.060639120000005 0.0 0.0 0.0 45.060639120000005 0.0 0.0 0.0 45.060639120000005" Properties=species:S:1:pos:R:3 dft_energy_ryd=-354.17273192 molecule_idx=37 crystal_idx=34 pbc="F F F"
H       19.26661143      25.88153197      23.68910930
H       19.48846532      27.10963262      21.54292038
H       19.85622912      24.00626117      25.14120301
C       19.94240448      25.52018053      22.91197444
C       20.06186761      26.19877780      21.71789244
C       20.53393355      23.61902643      24.37745390
H       20.60839531      21.73873080      26.62060253
C       20.68459724      24.32836307      23.16448113
C       20.92658853      25.70503072      20.70652694
H       21.00029038      26.23003640      19.75346815
C       21.23069076      21.56920339      25.74131123
C       21.24145787      22.44160502      24.59587938
C       21.59493222      23.84568946      22.14778363
H       21.68106711      19.53613550      27.49349906
C       21.67016403      24.56129842      20.91745656
H       22.00881577      18.41148451      26.15037777
C       22.07190721      20.50061193      25.62380482
C       22.15116889      21.97683835      23.58460517
C       22.28943862      19.37993872      26.59320691
H       22.32230985      24.18485529      20.13082196
C       22.36107730      22.65741578      22.38524272
H       22.66090923      20.13870737      21.00456803
S       22.94827092      20.50438883      24.09976905
H       23.34549192      19.30728443      26.89487514
C       23.35505362      22.14946158      21.42450798
C       23.42556320      20.89751243      20.84447548
C       24.57379926      20.71987885      20.02171609
H       24.79700402      19.80482109      19.47411254
S       24.73965495      23.09939478      20.95224474
C       25.39323536      21.82784936      19.97420388
H       26.55934332      22.65451312      18.34350999
C       26.67857642      21.99987096      19.22066750
H       27.02991242      21.02042436      18.86966567
H       27.46563458      22.43810674      19.85092446
29
Lattice="33.695645760000005 0.0 0.0 0.0 33.695645760000005 0.0 0.0 0.0 33.695645760000005" Properties=species:S:1:pos:R:3 dft_energy_ryd=-309.57336505 molecule_idx=42 crystal_idx=39 pbc="F F F"
H       15.01998568      20.23902762     -15.89732453
H       15.03478051      13.40223743     -16.11726990
H       15.25065908      18.00562723     -15.39457727
H       15.25818998      15.59165422     -15.46887912
C       16.08331233      20.32586534     -15.58958854
C       16.09790643      13.29269439     -15.81586391
H       16.10126705      20.46579284     -18.33539913
H       16.13094261      13.32446515     -18.56894872
H       16.21451393      13.70582164     -14.80474961
H       16.19853820      19.84629953     -14.60814030
H       16.33150722      21.39151157     -15.49922166
H       16.34386416      12.22286349     -15.79490046
C       16.04040596      17.52797043     -15.97193311
C       16.04498730      16.10743848     -16.01644552
C       17.07352452      20.48102696     -17.80191245
C       17.09897498      13.27715015     -18.02954456
N       17.00164224      19.72207387     -16.54581764
N       17.01689293      13.95820646     -16.72950451
C       16.96674055      18.32090657     -16.64201372
C       16.97483285      15.36289124     -16.73637623
H       17.33203662      21.52310229     -17.56862671
H       17.35452291      12.22222432     -17.85769248
H       17.84783919      20.06241719     -18.45051244
H       17.87954004      13.73225253     -18.64525349
C       17.96588116      17.59724297     -17.38591903
C       17.96938235      16.13843739     -17.43316661
N       19.01389357      18.14747100     -18.04815383
N       19.01915366      15.63755927     -18.13072133
S       19.87950599      16.91299219     -18.65676700
26
Lattice="38.44712088 0.0 0.0 0.0 38.44712088 0.0 0.0 0.0 38.44712088" Properties=species:S:1:pos:R:3 dft_energy_ryd=-309.43798816 molecule_idx=58 crystal_idx=51 pbc="F F F"
H       16.02481197      17.80488306     -14.83751955
H       16.40405007      19.94747330     -15.54695063
O       16.68616811      17.27916696     -15.32596194
C       17.17374960      19.50730201     -16.18594892
C       17.40412427      18.12193777     -16.14530365
H       17.76187755      21.38520140     -17.07403143
C       17.92295211      20.30804573     -17.04099539
H       18.37139817      18.73443477     -20.28873061
C       18.39158117      17.54792693     -16.95829452
H       18.57882628      16.47700683     -16.89016211
H       18.95139128      17.92042844     -22.55873432
C       18.89551340      19.75112804     -17.89765399
C       19.11211315      18.35577076     -17.83377562
C       19.27642923      19.09724155     -20.77397289
C       19.59534232      18.64313890     -22.05227732
C       19.69094791      20.60898838     -18.80237562
H       19.88406917      17.91320161     -18.46255702
C       20.08223044      20.05274309     -20.11455581
H       20.43728331      18.10072854     -24.29859319
S       20.10947850      22.15741543     -18.36059889
C       20.74602162      19.12286295     -22.69416243
O       21.11336163      18.71624555     -23.95711010
C       21.23836048      20.51413307     -20.78425314
C       21.57771402      20.05311549     -22.04890840
H       21.86288185      21.25063377     -20.27851995
H       22.47686928      20.39839266     -22.55759944
31
Lattice="41.82156468 0.0 0.0 0.0 41.82156468 0.0 0.0 0.0 41.82156468" Properties=species:S:1:pos:R:3 dft_energy_ryd=-311.14361921 molecule_idx=61 crystal_idx=54 pbc="F F F"
H       17.73600275      22.34706201     -18.81021203
N       17.99746730      22.34866717     -17.81872962
C       18.90003504      21.44578121     -17.60106699
H       18.98391929      21.86428980     -15.60879519
H       19.08819004      23.00126489     -20.33847129
H       19.26046903      18.76666645     -17.48810480
N       19.30459483      21.18805885     -16.29846327
C       19.54215899      20.57313112     -18.63293999
C       19.65862077      19.18642943     -18.41272589
H       20.07942073      22.79756523     -22.49740120
C       20.04716661      21.10640834     -19.82997219
C       20.08882130      22.55079109     -20.29334388
C       20.25139115      18.34894083     -19.36884326
H       20.24117576      20.82096804     -16.16422837
H       20.30309184      17.27548223     -19.18351586
C       20.67943422      20.26218628     -20.76425816
H       20.65983811      23.16525567     -19.57967156
C       20.76470598      22.49885287     -21.69011306
C       20.77521728      18.87988536     -20.54755302
C       21.18313371      21.05363259     -21.88368564
H       21.25324790      18.24800863     -21.29538467
H       21.63617226      23.16077368     -21.77847734
N       21.89714151      20.55115859     -22.84640460
N       22.24464605      21.46279151     -23.83208943
C       23.16969220      20.97521895     -24.63538970
H       23.00967434      22.57089344     -25.84959017
H       23.46383095      19.28271916     -23.63898723
N       23.46793640      21.66290341     -25.80066365
N       23.88554886      19.82006223     -24.40175130
H       24.45021183      21.67820996     -26.06495468
H       24.15576356      19.28466174     -25.22293270
37
Lattice="48.90114936 0.0 0.0 0.0 48.90114936 0.0 0.0 0.0 48.90114936" Properties=species:S:1:pos:R:3 dft_energy_ryd=-332.69771337 molecule_idx=62 crystal_idx=55 pbc="F F F"
H       22.11756515      26.78404259      28.09295787
O       22.10568017      24.85274843      26.41576771
H       22.41722590      21.06172162      19.43180513
H       22.58430762      27.97337024      30.26040882
C       23.03861630      26.60756013      28.65214549
H       23.17983246      22.85654434      21.00232786
C       23.30081293      27.25260986      29.86421377
C       23.42522043      21.05533186      18.98915454
H       23.42839916      21.78099128      18.16172544
H       23.60249815      20.05669149      18.56535082
S       23.60227311      24.85073881      26.58271526
H       23.71591058      24.60431592      22.53143507
H       23.88450132      27.18985103      25.87748979
C       23.97164258      25.69395975      28.15236943
C       24.22090819      26.20101239      25.55549584
C       24.22640486      22.80561844      20.65362038
H       24.32681941      23.57591102      19.86959738
C       24.47837427      26.97155546      30.57052872
C       24.47707842      21.42179723      20.04349835
H       24.47029635      20.66919894      20.84947740
H       24.67787020      27.47547534      31.51694521
C       24.93156742      26.01160534      24.43336905
C       24.81039756      24.50272124      22.45250499
H       25.06918816      23.85989934      24.49364931
H       25.20466133      26.88986594      23.83818316
C       25.14270273      25.39077672      28.85395983
H       25.03879881      22.35594681      22.60253748
C       25.14883901      23.13872751      21.83263904
H       25.16733728      25.32120411      21.80567120
C       25.39139469      24.70110346      23.85397713
C       25.39508120      26.03900339      30.06924488
H       25.48524827      21.39125719      19.59833879
H       25.84704200      24.65532514      28.46024436
H       26.30222781      25.80984037      30.62908543
H       26.20329069      23.11992318      21.51750044
O       26.84007456      24.69655973      23.73011649
H       27.20622773      24.81151129      24.62626494
26
Lattice="38.190988080000004 0.0 0.0 0.0 38.190988080000004 0.0 0.0 0.0 38.190988080000004" Properties=species:S:1:pos:R:3 dft_energy_ryd=-337.32875248 molecule_idx=68 crystal_idx=60 pbc="F F F"
N       14.48976723      21.95655915     -17.06679308
C       14.90340803      20.85793251     -17.02224272
S       15.52914172      19.28793727     -16.92731211
H       16.65821214      17.90661924     -18.97314903
C       17.10747114      19.53695279     -17.74751403
C       17.43805662      18.61844339     -18.68687280
H       17.31856228      21.65652909     -17.48544458
H       17.60753453      17.94524418     -21.23866333
C       17.91142953      20.73527572     -17.36107578
S       18.37363003      20.85667303     -15.56573881
C       18.59139891      18.13493041     -20.80558931
C       18.68688561      18.50078128     -19.44663511
H       18.81855142      20.80798280     -17.96985698
C       19.37356713      19.50822138     -15.42206323
H       19.62800614      17.78479887     -22.65827377
C       19.72966338      18.04570448     -21.60328956
C       19.96779922      18.72027000     -18.90393152
H       20.08246894      18.92317972     -17.84058241
N       20.08032359      18.57788005     -15.29399563
C       21.00746467      18.28207642     -21.06887096
C       21.10350198      18.61136940     -19.70678649
H       22.03383510      18.41029356     -22.96689479
H       22.08623106      18.77601605     -19.26241447
C       22.23987386      18.13385409     -21.92359990
H       22.58727032      17.08810602     -21.92083397
H       23.06498378      18.75540758     -21.55061403
26
Lattice="37.97687376 0.0 0.0 0.0 37.97687376 0.0 0.0 0.0 37.97687376" Properties=species:S:1:pos:R:3 dft_energy_ryd=-315.14066736 molecule_idx=73 crystal_idx=65 pbc="F F F"
H       15.99062001      19.37749779     -15.75318852
H       16.89633755      19.58238550     -18.07326494
C       17.06836050      19.43145336     -15.91024852
H       17.48925156      19.31231801     -13.78882623
C       17.55905414      19.53927946     -17.21039018
C       17.92747373      19.38588994     -14.78355262
H       18.93922465      19.48060194     -24.01618067
C       18.95296960      19.59306026     -17.33447602
H       18.95946530      16.97296988     -24.00627389
C       19.07054289      18.91576805     -23.09472107
C       19.08243987      17.52483624     -23.07497977
C       19.23980088      19.57447905     -21.86685497
H       19.25520053      15.71115471     -21.90532079
C       19.25359582      16.80112413     -21.86823825
N       19.27610117      20.93571906     -21.56752664
C       19.31074323      19.43639391     -14.92137597
C       19.41139051      18.83818824     -20.67566151
C       19.42003555      17.43904299     -20.64065406
N       19.45517031      21.09303634     -20.29854749
N       19.52553581      19.82301760     -19.71625818
H       19.55071851      16.88458678     -19.71249543
C       19.82239940      19.53892687     -16.22433295
N       19.82221451      19.67543394     -18.40285313
H       19.98167333      19.39718023     -14.06502246
N       21.14011008      19.59956184     -16.67549246
N       21.14988616      19.68640948     -17.96357901
30
Lattice="32.08550184 0.0 0.0 0.0 32.08550184 0.0 0.0 0.0 32.08550184" Properties=species:S:1:pos:R:3 dft_energy_ryd=-228.94463728 molecule_idx=89 crystal_idx=78 pbc="F F F"
H       13.46609596      17.97218991     -14.99316229
H       13.90454339      17.98825215     -17.63611828
H       14.07732044      19.60215863     -15.46952506
C       14.29473302      18.52334159     -15.45817232
C       14.67778215      17.96883752     -16.85856806
H       14.73796141      15.27911457     -18.15775960
C       15.19189238      16.59479941     -16.47547951
C       15.19922422      15.37681696     -17.17242102
H       15.34320241      12.37829084     -17.64465637
H       15.62360527      19.82327128     -17.56354995
C       15.67172603      18.18651259     -14.82166801
C       15.79461949      14.29897232     -16.52888161
C       15.79551555      16.72506051     -15.21000044
H       15.80397638      18.41198678     -13.75692005
O       15.84177844      12.20529144     -15.58847809
C       15.93775831      18.84486075     -17.17326438
C       16.01574435      12.82438817     -16.90543154
C       16.37120886      14.42059595     -15.24952873
C       16.40731944      15.63368256     -14.57146928
H       16.58362453      18.36924804     -17.92225817
C       16.62661249      18.98764667     -15.77476064
H       16.67084821      20.04066910     -15.46208591
H       16.86051829      15.72990383     -13.58250112
C       16.88098205      13.00317174     -14.93086191
H       16.98368582      12.71829409     -13.87936216
C       17.53890053      12.64329070     -17.10277425
H       17.64680253      18.58323243     -15.76100807
H       18.03848015      12.54248828     -18.06317029
C       18.07299454      12.74860341     -15.87955173
H       19.11950733      12.75399177     -15.58557495
13
Lattice="22.59281808 0.0 0.0 0.0 22.59281808 0.0 0.0 0.0 22.59281808" Properties=species:S:1:pos:R:3 dft_energy_ryd=-195.68699924 molecule_idx=92 crystal_idx=80 pbc="F F F"
H        9.15297790      10.16611787     -10.65630725
N        9.98101022      10.59001032     -13.25190868
C       10.10901701      10.67489249     -10.77255226
H       10.49763118      10.90594373      -8.66949425
C       10.61044398      10.92759550     -12.06208373
N       10.61145684      10.91947961     -14.30775487
C       10.86235184      11.08592335      -9.68052405
C       11.86198863      11.58450693     -12.24679436