36
Lattice="47.86952688 0.0 0.0 0.0 47.86952688 0.0 0.0 0.0 47.86952688" Properties=species:S:1:pos:R:3 dft_energy_ryd=-267.15151335 molecule_idx=10 crystal_idx=9 pbc="F F F"
H       20.63175603      22.38432964      30.11603702
H       20.85553510      21.47484567      27.82351836
C       21.24210692      22.90385249      29.37746920
C       21.36496788      22.39716756      28.10861410
H       21.80734696      24.49589000      30.76185709
H       21.81773947      21.63107540      25.55564276
C       21.91302342      24.11562743      29.74586128
C       22.16435097      23.06374446      27.12292023
C       22.31875040      22.56174936      25.83243083
C       22.68207126      24.79204221      28.83292597
H       22.78114844      21.78501214      23.29201210
C       22.83729103      24.30340632      27.49444151
C       23.11279548      23.22280114      24.86671539
H       23.19774598      25.71403445      29.10811463
C       23.28103793      22.71641401      23.56791892
C       23.61423111      24.96968049      26.54899276
H       23.72903265      21.95156121      21.02103587
C       23.77868700      24.47123203      25.23587806
C       24.07022913      23.37771192      22.61313008
H       24.11984400      25.89736690      26.82790408
C       24.23461731      22.87923531      21.30004232
C       24.56785294      25.13259198      24.28106582
H       24.65123594      22.13491944      18.74077485
C       24.73609745      24.62615777      22.98220570
C       25.01166153      23.54542232      20.35455109
H       25.06778204      26.06396438      24.55691212
C       25.16696411      23.05686789      19.01604277
C       25.53011585      25.28700069      22.01632017
C       25.68473280      24.78498550      20.72589161
C       25.93580862      23.73341019      18.10309614
H       26.03112159      26.21767695      22.29316642
H       26.04152795      23.35307391      17.08711419
C       26.48400807      25.45175974      19.74026621
C       26.60675412      24.94519786      18.47140969
H       26.99340357      26.37408145      20.02541160
H       27.21713427      25.46461906      17.73281835
