38
Lattice="46.51821469309133 0.0 0.0 0.0 46.51821469309133 0.0 0.0 0.0 46.51821469309133" Properties=species:S:1:pos:R:3:forces:R:3 dft_energy_ryd=-363.75595952 molecule_idx=65 crystal_idx=58 energy=-4949.151523942765 free_energy=-4949.151523942765 pbc="T T T"
H       18.30930880      23.82763436      22.57026097      -0.00776396       0.00232633       0.01320699
C       19.36885883      24.08087022      22.59485980      -0.01029495       0.00343885      -0.01626274
H       19.41219985      25.00923423      20.63505207      -0.00670647      -0.00789714      -0.01677928
H       19.69867762      23.26982514      24.57543327       0.00764132      -0.00252251       0.01520550
C       19.98431807      24.73269274      21.52080074       0.01960595       0.01157434       0.00692604
C       20.14674107      23.76572792      23.71052941       0.00486196      -0.00436059       0.01529138
C       21.34309186      25.02736238      21.60390088      -0.00574436       0.00127192       0.00441304
N       21.46433228      24.03624064      23.80341232      -0.00786603      -0.01165378       0.01100664
H       21.46135512      20.90242481      18.70996088      -0.00149895      -0.00054507      -0.00086826
H       21.69283441      20.07397728      21.08130130       0.00035044       0.01420894      -0.00219881
H       21.86440754      25.52055779      20.78364520       0.02147077      -0.00448915       0.00234973
C       22.05065717      24.65015548      22.75743631       0.00930996      -0.01290797       0.01724233
C       22.07126939      21.43730055      19.43801281       0.01508903       0.00711424      -0.00243921
C       22.20298106      20.98119411      20.75371073      -0.00736801      -0.01087911      -0.01791828
H       22.68548659      22.98377069      18.04665301      -0.01002293      -0.00408831       0.01138330
C       22.75244956      22.60127001      19.06940713       0.01217983      -0.01299101      -0.00794985
C       22.99766568      21.70578043      21.64145969       0.00145627       0.00886902       0.00272614
H       23.13252663      21.39961149      22.67817393       0.01159130       0.00435751      -0.00675892
N       23.52388437      23.31435238      19.91311264      -0.00011107       0.01491497       0.01142135
C       23.54918098      24.88597026      22.82847428       0.00230628      -0.00147067      -0.01042634
H       23.47038843      25.06335352      24.97053107       0.00987586       0.01082332       0.00452977
C       23.63619330      22.86700531      21.18289243      -0.00543068      -0.00147736      -0.00744309
H       23.77417563      25.84710170      22.34602457      -0.01069090       0.00792723      -0.00313366
N       24.08988079      24.84061500      24.19031362       0.00661416      -0.01869938      -0.02362458
C       24.43355736      23.74286422      22.12485837      -0.00116548      -0.00363528      -0.00092817
H       24.80165135      24.08714087      28.78009375      -0.00228031       0.00461436      -0.01589944
N       24.78882627      23.90813878      26.71476410       0.00774545      -0.00704971       0.00992780
C       24.80946175      23.66275985      24.31511269      -0.00389728       0.01350498       0.01854742
N       25.06248363      22.99976830      23.22556771      -0.01968668      -0.00781513       0.00572379
H       25.21401671      24.23892050      21.52649457       0.00474960       0.01101358       0.00168536
C       25.22188759      23.53655593      27.93410419      -0.01508852       0.00009539       0.00226026
C       25.28844120      23.23858351      25.65100882       0.00936087       0.00854712       0.00184168
C       26.15541513      22.51667664      28.14748324       0.01884002       0.00164345      -0.00127887
C       26.22283863      22.19688252      25.76602045       0.00591482      -0.01601257       0.00440276
H       26.47961452      22.27094417      29.15889157      -0.01815276       0.00091866      -0.00226051
H       26.58052648      21.71075322      24.86004566      -0.00600404      -0.01157742      -0.01564516
C       26.66566877      21.83506385      27.03681435      -0.01729221       0.01004504      -0.00777527
H       27.40048445      21.03867201      27.16112962      -0.01189855       0.00286292      -0.00050085
