15
Lattice="23.61994236 0.0 0.0 0.0 23.61994236 0.0 0.0 0.0 23.61994236" Properties=species:S:1:pos:R:3 dft_energy_ryd=-294.3544391 molecule_idx=114 crystal_idx=97 pbc="F F F"
O        9.02611166      12.69364454     -13.05438281
H        9.63545896      10.20882505     -12.28414012
N       10.05422349      12.95877019     -12.43895736
H       10.29358513      10.67866760     -13.86603665
C       10.53527260      10.56800374     -12.80156899
N       10.89773677      11.88591229     -12.26847029
H       11.37801682       9.89176365     -12.64712298
H       11.53109140      14.09939158     -11.27790878
C       12.09275669      12.15770737     -11.56078501
N       12.25005007      13.40448126     -11.09839971
N       12.89932382      11.10457780     -11.44458387
H       13.14523477      13.57878021     -10.63100466
N       14.11792187      11.27018636     -10.77089044
O       14.50580947      12.39835598     -10.35379233
O       14.77180677      10.23533264     -10.63635639
