24
Lattice="27.078052680000003 0.0 0.0 0.0 27.078052680000003 0.0 0.0 0.0 27.078052680000003" Properties=species:S:1:pos:R:3 dft_energy_ryd=-332.46584794 molecule_idx=152 crystal_idx=132 pbc="F F F"
H       10.88946034      13.14640152     -15.47888130
H       11.01480131      14.38901559     -12.14697447
H       10.94874673      11.38337961     -15.12224437
C       11.54814280      12.29117511     -15.26291226
H       12.26813590      12.15051582     -16.08502161
C       12.00127896      14.82283108     -12.35885338
H       12.01878041      15.88248511     -12.07765782
O       12.22387655      14.80782477     -13.82587839
O       12.23911303      12.48492631     -14.01384523
H       12.79668356      13.07739331     -11.28012334
C       13.14708523      14.00050277     -11.75329245
N       13.04639774      13.68945351     -14.14349408
H       13.75252054      14.56759975     -11.03813597
C       13.99592637      13.63907498     -12.98033507
O       14.48269247      11.49483582     -11.89855361
C       14.65970166      12.22854294     -12.87159125
H       14.59866595      14.78148209     -15.21626184
C       15.10439010      14.70096006     -13.23193281
H       15.66515103      12.56870045     -14.66267951
N       15.35566375      14.96757936     -14.55818593
N       15.44175651      11.89230009     -13.93915172
H       15.94513703      11.01222524     -13.89858962
O       15.75366340      15.18252985     -12.30137179
H       15.99706382      15.73310012     -14.74886724
