11
Lattice="18.91408428 0.0 0.0 0.0 18.91408428 0.0 0.0 0.0 18.91408428" Properties=species:S:1:pos:R:3 dft_energy_ryd=-94.26952615 molecule_idx=189 crystal_idx=164 pbc="F F F"
H        8.23850000       9.70883841     -11.89605296
C        8.66568916       9.76792104     -10.89444913
H        8.80551448      10.29787771      -8.03556578
H        8.54502153      10.71008950     -10.35633501
H        9.43328408       7.78784001     -10.90272658
C        9.31686029       8.72613389     -10.35501920
C        9.85143119       9.97931747      -8.15199894
C        9.94115054       8.72610715      -9.00495135
H       10.29323868       9.78026023      -7.17005533
H       10.38845665      10.80859163      -8.63729848
O       10.52644034       7.71260991      -8.60113421
