34
Lattice="32.2354242 0.0 0.0 0.0 32.2354242 0.0 0.0 0.0 32.2354242" Properties=species:S:1:pos:R:3 dft_energy_ryd=-294.25474585 molecule_idx=308 crystal_idx=266 pbc="F F F"
H       12.86276414      16.60549529     -15.81972719
H       13.08663008      14.84805168     -15.62699310
H       13.11843158      15.92075390     -14.19414998
C       13.40251080      15.83198017     -15.25141095
H       14.33413498      14.78511426     -18.04160764
H       14.47326649      18.17647563     -17.30409741
H       14.46790359      17.17245972     -18.77872556
C       14.87980019      15.99498840     -15.40975789
H       15.04470651      13.62510920     -16.89592937
C       15.10546990      17.75933141     -18.10135249
H       15.24574665      15.51093522     -12.51976759
C       15.25842204      14.51004592     -17.51182087
O       15.52731627      17.12495755     -14.73484437
H       15.55201492      18.58340644     -18.67119620
C       15.75338080      15.66968757     -16.66083450
H       16.01932931      14.24194224     -18.25800381
C       16.02745903      15.76674083     -14.49567468
C       16.16995254      15.31605202     -13.07965611
C       16.16239794      16.88695136     -17.48479570
H       16.39777006      14.24181851     -13.04033430
H       16.78469809      13.26411656     -15.28660548
H       16.99400086      15.85912460     -12.59284855
C       16.97044596      15.39162352     -15.69150060
O       17.34312970      16.56878492     -18.28750706
H       17.53353145      19.31309326     -18.00667420
C       17.49839526      17.38386902     -17.05791409
C       17.54870868      13.98899460     -15.60357081
H       17.94432769      13.67055341     -16.57761856
H       17.88692396      19.31391273     -16.24938370
C       18.00033438      16.48658021     -15.94340299
C       18.03691005      18.77374971     -17.19534850
H       18.36885178      13.97714620     -14.87166881
H       19.11611474      18.73879580     -17.40083005
O       19.03954500      16.65268364     -15.30977249
