12
Lattice="20.4107148 0.0 0.0 0.0 20.4107148 0.0 0.0 0.0 20.4107148" Properties=species:S:1:pos:R:3 dft_energy_ryd=-247.40969394 molecule_idx=649 crystal_idx=564 pbc="F F F"
O        8.35723549       8.28402383     -10.40390080
H        8.52595663      10.34764167     -11.86447862
N        9.24830558      10.28345677     -11.15042118
C        9.20517574       9.16554028     -10.31185712
O       10.15591153      12.27959117     -11.88105226
C       10.17833889      11.32639273     -11.10962578
N       10.22707228       9.15502282      -9.35786254
H       10.24901348       8.36222925      -8.71982811
N       11.13567933      11.17271369     -10.10242690
C       11.22629411      10.11794389      -9.18926470
H       11.83943141      11.90425798     -10.02613801
O       12.09444482      10.04404520      -8.32600328
