31
Lattice="41.39709336000001 0.0 0.0 0.0 41.39709336000001 0.0 0.0 0.0 41.39709336000001" Properties=species:S:1:pos:R:3 dft_energy_ryd=-401.86527682 molecule_idx=671 crystal_idx=579 pbc="F F F"
H       14.85276493      20.14387216      20.58747876
H       15.73533250      17.97686581      21.40830839
O       15.66696010      19.73404743      20.24743527
H       16.20521020      19.47959197      22.26622296
C       16.25701460      18.94407550      21.30184410
C       17.70719653      18.68927753      20.92796605
H       17.76132359      18.20898893      19.93694399
H       17.97159058      20.87206254      20.96895525
H       18.17073258      17.99705146      21.64704673
N       18.44089388      19.94731976      20.91182144
O       18.49808421      22.57693833      20.99769405
C       19.75795302      20.03217039      20.66905849
N       19.75385464      22.55439505      20.75830380
C       20.36420232      21.34460249      20.59842119
N       20.47439714      18.89912658      20.50157670
C       21.79379901      19.07877507      20.26534868
C       21.78133902      21.36647001      20.30522280
H       21.82651013      23.36942086      20.41021076
H       22.06832370      17.04263470      20.19722529
N       22.40188065      22.56019074      20.17495141
N       22.49295410      20.23780458      20.14450206
N       22.53133618      17.94078106      20.13966205
H       23.51489556      18.00748604      19.91010920
C       23.82875282      22.71547229      19.94200214
H       23.97879073      23.61816266      19.32870496
H       24.55598971      24.78067114      21.53924306
H       24.18622290      21.84761999      19.37090464
O       24.25243304      23.98727546      22.01750200
C       24.63157329      22.83373088      21.24105739
H       24.42593966      21.96253242      21.87725059
H       25.71144928      22.85028706      21.00672665
