45
Lattice="45.69176304 0.0 0.0 0.0 45.69176304 0.0 0.0 0.0 45.69176304" Properties=species:S:1:pos:R:3 dft_energy_ryd=-415.77142781 molecule_idx=684 crystal_idx=591 pbc="F F F"
H       17.73043669      26.26435919     -20.52688797
H       18.15177668      26.47703271     -22.99253134
C       18.56218295      25.73904024     -21.00098803
C       18.80394820      25.86194922     -22.37177982
N       19.32685736      24.97470122     -20.19361622
C       19.88702686      25.19038932     -22.93921400
H       20.09200794      25.27826576     -24.00603135
H       20.13647288      19.82105075     -20.54758826
C       20.35778584      24.31819880     -20.74115514
C       20.70690850      24.39908957     -22.11133019
H       21.01378690      18.98999510     -21.85794242
H       20.94165445      23.68945989     -20.06426974
C       21.11670389      19.43646394     -20.85939853
H       21.25249617      23.22543769     -24.60686032
H       21.42837485      18.65188985     -20.15639499
O       21.68991340      21.53538964     -21.84541774
N       21.82544703      23.74539088     -22.61388849
C       22.09328001      23.67845366     -24.04348422
C       22.14071479      20.55993194     -20.88548716
H       22.23458603      21.03856979     -19.89062511
H       22.28663118      24.68845731     -24.45328362
H       22.45696969      23.54576225     -26.56295148
C       22.52424168      22.70890228     -21.91150187
H       22.81012202      23.02573483     -20.89217957
H       23.13896648      20.17675882     -21.17179687
N       23.27179660      22.82875950     -24.10450240
C       23.36670335      22.93988348     -26.53641627
C       23.76494757      22.48588418     -22.80607988
N       23.91570434      22.65166272     -27.72638582
C       23.90487908      22.51773634     -25.29647119
H       24.10350866      21.43296337     -22.76090530
O       24.86298189      23.35558141     -22.46095153
H       24.97104054      22.90411068     -20.41557043
C       25.04201579      21.91329793     -27.73814663
C       25.09936019      21.77084435     -25.33015061
H       25.46924472      21.69656358     -28.71936028
H       25.58159693      21.46169101     -24.40323471
C       25.60974484      22.89107466     -21.31915739
C       25.65924685      21.45845149     -26.56600058
H       25.92800044      21.84295980     -21.48762163
H       26.47605087      24.84314390     -20.99161254
H       26.58111007      20.87846185     -26.61830712
C       26.80922663      23.80781450     -21.14362709
H       27.39986553      23.49872688     -20.26986879
H       27.45002413      23.77605530     -22.03536679
