27
Lattice="25.18870284 0.0 0.0 0.0 25.18870284 0.0 0.0 0.0 25.18870284" Properties=species:S:1:pos:R:3 dft_energy_ryd=-174.63424276 molecule_idx=902 crystal_idx=781 pbc="F F F"
H       10.08246221      12.34317354     -11.99910213
H       10.75829626      13.92123749     -15.05732717
O       10.60382793      13.78738311     -14.10499533
H       10.99512178      11.73713365     -14.24315201
C       11.16265589      12.42124058     -12.19479473
H       11.24709335      14.53858148     -11.70128206
C       11.37383305      12.62814640     -13.70397618
H       11.44557453      10.25943365     -12.33028699
H       11.58827298      13.45592800     -10.32916824
H       11.71473849      10.93576159     -10.70457054
C       11.75655209      13.60963902     -11.40752643
C       11.87369213      11.11459225     -11.78075670
C       12.88166832      12.78151217     -14.00156496
H       12.96725541      14.90031157     -13.50292363
H       13.01459864      12.95026724     -15.08442605
H       13.18072757      10.62548322     -14.16451912
C       13.26822337      13.72262621     -11.69663644
C       13.38355450      11.22847001     -12.07816641
C       13.46885260      13.96663975     -13.20695525
C       13.58929744      11.47225580     -13.58829583
H       13.69258777      14.56469462     -11.12769784
H       13.84302575      12.24127333     -10.20428464
H       13.89008764      10.29579222     -11.78496396
C       13.97362493      12.41350687     -11.28511292
H       14.54201922      14.06732465     -13.43853160
H       14.66510835      11.54455698     -13.81661910
H       15.05562953      12.49141639     -11.48074560
