26
Lattice="29.38298328 0.0 0.0 0.0 29.38298328 0.0 0.0 0.0 29.38298328" Properties=species:S:1:pos:R:3 dft_energy_ryd=-274.22432249 molecule_idx=911 crystal_idx=790 pbc="F F F"
H       11.58501249      14.38495042     -15.89674741
H       11.70844365      16.18130724     -15.78006925
H       12.06796291      15.28919018     -18.15996559
C       12.26220775      15.25611418     -15.99264173
C       12.85768624      15.27594708     -17.39528801
O       13.29948413      15.17767459     -14.99661877
H       13.50541665      16.16553071     -17.51726311
H       13.51942229      13.10550086     -15.07505158
O       13.63280524      14.08139291     -17.61709294
H       14.00050932      14.88182130     -12.60970318
C       14.13443240      14.01932271     -15.21407546
H       14.13206624      13.08577442     -12.53252795
C       14.67870110      14.01885178     -12.73036149
C       14.69412350      14.01885153     -16.64245817
H       15.24075866      13.08577426     -16.84028759
C       15.23838712      14.01931847     -14.15874590
H       15.37231737      14.88182174     -16.76311155
O       15.74002407      14.08139242     -11.75573234
H       15.85339096      13.10549204     -14.29777431
H       15.86741526      16.16553047     -11.85556182
O       16.07333775      15.17766788     -14.37620615
C       16.51514448      15.27594542     -11.97754010
C       17.11061735      15.25611250     -13.38018832
H       17.30487115      15.28918812     -11.21286657
H       17.66437763      16.18130644     -13.59276600
H       17.78781458      14.38495085     -13.47608506
