16
Lattice="21.934599119999998 0.0 0.0 0.0 21.934599119999998 0.0 0.0 0.0 21.934599119999998" Properties=species:S:1:pos:R:3 dft_energy_ryd=-245.44303647 molecule_idx=931 crystal_idx=807 pbc="F F F"
O        8.53219293       9.57487911     -10.78091632
H        8.92326476      12.43472165     -10.47932574
C        9.68042672       9.83041441     -11.08355249
H        9.89983338      11.29463051     -12.66453828
N        9.88545820      12.31256091     -10.78766138
C       10.22506731      11.17039231     -11.62123197
O       10.70630553       8.91912677     -10.97151713
C       10.89462156      12.54194804      -9.83836201
O       10.85347053      13.32488752      -8.89313593
C       11.75525818      11.03353670     -11.46022119
C       11.96606577       9.50830049     -11.41414017
N       11.96542810      11.70782201     -10.18496400
H       12.32733779      11.49268103     -12.28135924
H       12.20018610       9.10460851     -12.41038422
H       12.73888016       9.20956163     -10.69590566
H       12.89266540      11.98639077      -9.87924664
