26
Lattice="39.06363888 0.0 0.0 0.0 39.06363888 0.0 0.0 0.0 39.06363888" Properties=species:S:1:pos:R:3 dft_energy_ryd=-294.59968988 molecule_idx=1038 crystal_idx=898 pbc="F F F"
H       15.91856098      16.50374704      18.85929785
C       16.71486736      16.90991311      19.49224555
H       16.28913693      17.30517362      20.42905943
H       17.44814749      16.12222124      19.73197010
O       17.32522442      17.95632103      18.71785744
H       18.57689605      20.79128044      15.51246390
C       18.37760039      18.60731504      19.31864265
H       18.37885474      17.62925912      21.25110534
O       18.50468626      19.79584805      17.27873777
H       19.03867661      21.79630277      16.93185677
C       18.84227318      18.37174705      20.60247023
C       19.12431579      20.80362255      16.46095821
C       19.02189739      19.60440868      18.52968186
C       19.93782815      19.08143859      21.14380080
C       20.11312462      20.31535654      19.04358612
H       20.18636241      20.56785831      16.28483801
O       19.80171610      17.97159672      23.25921725
C       20.36482093      18.79213508      22.52048887
H       21.24595724      19.36408465      22.88522148
H       20.59554649      21.07034272      18.43120869
C       20.57755988      20.05491225      20.34470912
O       21.64883994      20.71845573      20.90013758
H       21.60527239      22.53400602      19.84399397
H       22.70669418      21.27691485      19.17263853
C       22.29964098      21.71608686      20.09854016
H       23.11722686      22.10137956      20.71700016
