27
Lattice="33.3205488 0.0 0.0 0.0 33.3205488 0.0 0.0 0.0 33.3205488" Properties=species:S:1:pos:R:3 dft_energy_ryd=-320.68746344 molecule_idx=1152 crystal_idx=993 pbc="F F F"
H       13.18514215      14.97124440     -18.07904969
H       13.38051433      13.48657744     -16.08135757
C       13.99440600      15.12607048     -17.36600300
C       14.11521196      14.28054730     -16.21837074
C       14.96105564      16.10355224     -17.48319644
H       15.16111900      13.70699283     -14.42648712
H       15.06953175      18.17891194     -20.14193263
C       15.13549821      14.40137914     -15.26739057
C       15.64890656      17.26501757     -18.23724011
C       15.76785240      18.12925623     -19.30677678
C       15.97122569      16.20331316     -16.49151722
C       16.13169135      15.41265225     -15.38888446
C       16.62366454      17.30037212     -17.20704167
C       16.91098231      18.98909407     -19.27505007
H       17.05699489      19.68361661     -20.10299317
H       17.03048943      16.45602863     -13.69496920
C       17.27756914      15.69241897     -14.44873322
H       17.63951753      14.79903048     -13.91695407
C       17.73247933      18.09510392     -17.14001607
C       17.86484568      18.97843627     -18.25034585
H       18.31008406      18.59469271     -15.09426358
H       18.71825558      19.65538361     -18.31242897
C       18.64186934      17.97641243     -15.94294781
S       18.84828305      16.26768911     -15.25085629
O       19.13215406      15.36602622     -16.36074288
H       19.68965780      18.23538798     -16.15852940
O       19.78975782      16.43355148     -14.14468101
