20
Lattice="27.572643 0.0 0.0 0.0 27.572643 0.0 0.0 0.0 27.572643" Properties=species:S:1:pos:R:3 dft_energy_ryd=-219.98960624 molecule_idx=1256 crystal_idx=1087 pbc="F F F"
H       10.77029031      14.57026576     -14.75641579
C       11.85355561      14.72300257     -14.67928563
H       12.03820009      15.77747253     -14.43500416
H       11.90315056      12.89657660     -13.43418173
H       12.09165330      13.55620119     -16.53901837
C       12.47822474      13.82963339     -13.58293556
H       12.57279396      14.34840886     -12.62047738
C       12.61183214      14.33819815     -15.96390929
H       12.80198769      15.17763882     -16.64312694
N       13.80317576      13.52413053     -14.11948000
C       13.93713259      13.75454824     -15.47186341
H       14.53790908      11.94349440     -12.93681821
C       14.84436231      12.93279728     -13.32455041
O       14.94425426      13.49942145     -16.14354164
C       15.25689845      13.83664094     -12.14727400
O       14.95436083      15.03178278     -12.07386116
H       15.70988540      12.78275171     -13.99189230
H       16.26543728      12.22812189     -11.25785981
N       15.98262637      13.19833823     -11.17501757
H       16.34523883      13.75354426     -10.40645637
