46
Lattice="49.7482398 0.0 0.0 0.0 49.7482398 0.0 0.0 0.0 49.7482398" Properties=species:S:1:pos:R:3 dft_energy_ryd=-522.55794548 molecule_idx=1281 crystal_idx=1109 pbc="F F F"
H       20.46264609      21.05455366      29.15175614
C       21.14508495      21.84264194      28.83294571
H       21.22143867      22.80647805      30.77521567
H       21.24926778      21.10959130      26.83699431
C       21.57663044      22.82250406      29.74451572
C       21.59572071      21.87815608      27.52439509
H       21.75081439      21.23352656      24.97789716
C       22.45546895      23.81388669      29.34001069
C       22.49868397      21.97871900      24.71740859
C       22.49319153      22.87607639      27.07301415
H       22.61885765      21.28673880      22.67135058
H       22.78475092      24.57165398      30.04261963
C       22.94759501      23.87013514      28.00656564
C       22.95837514      22.89928152      25.69587439
C       22.97145638      21.99720771      23.41826911
C       23.89669459      24.87708877      27.55999816
C       23.90754010      23.87882908      25.29738817
C       23.93250029      22.95277897      23.05062558
O       24.02544812      26.15526554      29.62716870
C       24.37203313      24.85995613      26.23663234
C       24.36884985      25.93235848      28.47460967
O       24.38583713      22.91120837      21.76220815
C       24.40368072      23.90498522      23.95727611
C       25.33395624      25.83264798      25.78036629
O       25.35179942      26.82641935      27.97543152
C       25.36877147      23.80530287      21.26315491
C       25.36560087      24.87767974      23.50100331
O       25.71222630      23.58234342      20.11035596
C       25.80514457      26.78486550      26.68700969
C       25.83010118      25.85881167      24.44025330
C       25.84094233      24.86054246      22.17762862
C       26.76617592      27.74042845      26.31936714
C       26.77926159      26.83835352      24.04176286
C       26.79003722      25.86749936      21.73107834
H       26.95288735      25.16598748      19.69501706
H       27.11877904      28.45089845      27.06628477
C       27.24444855      26.86156442      22.66462377
C       27.23895282      27.75892051      25.02023142
C       27.28217031      25.92374948      20.39762472
H       27.98681833      28.50411294      24.75973814
C       28.14192033      27.85948068      22.21324104
C       28.16099948      26.91513356      19.99311598
H       28.48837016      28.62804769      22.90064500
H       28.51619288      26.93116680      18.96241924
C       28.59255028      27.89499670      20.90468784
H       29.27498863      28.68308705      20.58588101
