29
Lattice="32.92941708 0.0 0.0 0.0 32.92941708 0.0 0.0 0.0 32.92941708" Properties=species:S:1:pos:R:3 dft_energy_ryd=-385.92871275 molecule_idx=1428 crystal_idx=1237 pbc="F F F"
H       15.01597755      13.02334698     -18.99772729
H       15.13908094      19.20432789     -14.09159084
H       15.28212418      14.80894351     -20.37556472
O       15.29568298      13.35377003     -18.12428451
H       15.63951222      18.83603419     -16.42655434
C       15.69852175      15.31060510     -19.50034112
C       15.74955509      14.64870974     -18.27269515
O       15.88542267      17.29268241     -14.03719252
H       16.15982405      17.12617504     -20.56727992
C       16.08548250      18.69277518     -14.30275545
C       16.17973430      16.61503916     -19.60303119
H       16.15335989      13.52608743     -15.84748001
C       16.26412132      15.30572193     -17.12701335
C       16.37938308      14.59030252     -15.87480031
C       16.51746806      18.76078154     -15.77424980
C       16.69216442      17.27538062     -18.47882526
O       16.66398579      13.18915175     -13.54933832
C       16.71140852      16.64875607     -17.22444676
C       16.78047674      15.20068377     -14.74139790
N       16.93030646      14.40549671     -13.51181545
H       16.87372929      19.09047928     -13.63454234
C       17.04214670      16.66396125     -14.64675000
H       17.10602317      18.87721189     -19.48213975
O       17.20637226      18.56149665     -18.56516063
O       17.33048444      15.00738877     -12.49644082
H       17.17463448      19.61052690     -15.99137309
C       17.24259727      17.38894065     -16.01483823
H       17.91910514      16.84997107     -14.00163122
H       18.31686562      17.57080286     -16.17429065
