28
Lattice="39.13656264 0.0 0.0 0.0 39.13656264 0.0 0.0 0.0 39.13656264" Properties=species:S:1:pos:R:3 dft_energy_ryd=-379.08768307 molecule_idx=1450 crystal_idx=1256 pbc="F F F"
S       15.89316095      17.60291910     -15.35604550
H       16.44757801      18.33706960     -17.92003642
C       17.30811541      18.12782512     -16.07076691
N       17.33454394      18.44017850     -17.41455426
H       17.34475823      19.07776737     -19.80194550
O       17.71441557      19.87640639     -21.91603402
C       18.32158705      19.17478433     -19.30195470
H       18.51321675      18.13298700     -14.42803647
N       18.49675619      18.27600958     -15.42934066
N       18.45878788      18.87978715     -18.03274487
H       18.70233102      21.62730737     -23.76148625
C       18.90827133      20.00193896     -21.51408630
H       19.16819415      20.04653608     -24.35157487
H       19.28918002      18.67367069     -15.92726448
C       19.36946201      19.65982737     -20.15726295
C       19.54448737      20.92067396     -23.79830409
C       19.91590736      20.52319667     -22.41353798
H       20.38455156      21.36902727     -24.34658062
C       20.73408509      19.81339538     -19.80419573
H       20.74832124      20.07678495     -17.67780903
H       20.96725979      18.40045526     -18.21228248
N       21.18906732      20.64524479     -21.98448644
C       21.24913926      19.44517840     -18.43413524
C       21.63484392      20.30950616     -20.73605762
H       21.87370496      21.01825651     -22.64234097
H       22.68991298      20.44684289     -20.53171061
O       22.68081015      19.62166213     -18.39017176
H       22.98230485      19.33951525     -17.51000757
