37
Lattice="39.00743784 0.0 0.0 0.0 39.00743784 0.0 0.0 0.0 39.00743784" Properties=species:S:1:pos:R:3 dft_energy_ryd=-520.23901311 molecule_idx=1567 crystal_idx=1353 pbc="F F F"
O       16.44091673      20.45970907     -19.12704358
H       16.96639994      18.55467921     -17.60525870
H       17.14611675      20.05205540     -22.37666469
S       17.75767571      21.02874692     -18.88800989
O       17.95353934      22.41587829     -18.50007184
C       17.95358205      18.81917699     -17.22818802
H       18.02360327      18.83436928     -20.40630700
S       18.13244495      18.07094669     -23.29044774
H       18.13581998      17.10244037     -15.93312059
C       18.17877673      19.67776939     -22.39576723
C       18.56316440      19.99679045     -17.66836430
C       18.61438437      18.01555553     -16.29173356
N       18.62454152      20.83908933     -20.28302019
H       18.70901118      20.78813717     -24.19467239
C       18.69722360      19.51624373     -20.94294157
C       19.10957448      20.59869899     -23.19168735
H       19.23114225      21.55841613     -22.66857362
H       19.49740275      21.37400911     -20.30308915
C       19.82064708      20.37835881     -17.17709097
C       19.87800325      18.36776199     -15.79648678
H       19.94767850      16.68193654     -14.44202060
S       20.11487607      18.23583959     -24.06057269
H       20.08729224      17.89076432     -21.22420818
C       20.12826596      18.94592803     -20.92004799
H       20.27061632      21.31616828     -17.50549766
C       20.46852518      19.56285389     -16.25133665
C       20.45320403      19.86459715     -23.27777788
C       20.59474784      17.49387233     -14.79835304
H       20.52414722      18.98539486     -19.89386465
H       20.92748670      18.07833562     -13.92809017
C       21.07694988      19.68319600     -21.87854923
H       21.16149941      20.38613284     -23.93729791
H       21.44452757      19.85854069     -15.86149535
O       21.37614733      21.03467636     -21.39641459
H       21.49218384      17.04054089     -15.24734839
H       22.01780190      19.11928492     -21.97998616
H       22.05547020      20.94849524     -20.70399041
