29
Lattice="38.41822656 0.0 0.0 0.0 38.41822656 0.0 0.0 0.0 38.41822656" Properties=species:S:1:pos:R:3 dft_energy_ryd=-453.09882279 molecule_idx=1633 crystal_idx=1411 pbc="F F F"
H       16.69960672      18.36390648     -17.12211837
O       17.38049561      16.36331218     -22.36494397
N       17.79098034      17.07986690     -23.51820456
C       17.79491752      18.43530057     -17.12006264
N       17.81185463      16.93338332     -21.21654484
H       17.76733430      20.57464079     -17.47530667
H       17.98318781      19.56319240     -18.94699552
O       18.19795434      18.50564012     -15.73854683
H       18.22719826      17.53285098     -17.59119154
C       18.24818559      19.67001768     -17.89053402
C       18.47958939      18.10672780     -23.03381843
C       18.50124774      18.01226034     -21.58734217
H       19.05656437      19.01402272     -24.78578532
N       19.03242160      19.09709006     -23.77612303
N       19.08165234      18.80276951     -20.61587340
C       19.63080928      18.59497878     -15.65635515
H       19.78344215      20.75130611     -15.86868571
H       19.63836183      19.75203274     -23.28766105
N       19.71417395      19.79937339     -17.77335915
H       19.87756358      18.63562942     -14.58760091
N       19.75052442      19.79310162     -21.09354913
H       20.08361836      17.69098413     -16.10763332
C       20.15979559      19.84065689     -16.36879373
C       20.38530349      20.59327551     -18.66731988
C       20.36057839      20.58219945     -20.12722189
N       21.28087453      21.49951751     -18.27970273
H       21.25739184      19.86766608     -16.34780795
N       21.22102627      21.49759673     -20.57241363
O       21.79586984      22.03922385     -19.47102847
