26
Lattice="35.824405680000005 0.0 0.0 0.0 35.824405680000005 0.0 0.0 0.0 35.824405680000005" Properties=species:S:1:pos:R:3 dft_energy_ryd=-294.79162274 molecule_idx=1748 crystal_idx=1514 pbc="F F F"
H       15.17704301      20.23955758     -21.42361537
N       15.92884586      20.61010704     -20.83484165
H       16.61035579      21.07662848     -21.44387028
N       16.55018566      19.51066975     -20.24442828
N       16.71827416      18.34612430     -20.90136968
H       16.91457515      14.74801550     -20.78827906
N       16.97472507      19.60271952     -18.95894561
C       17.31205750      17.58296424     -19.94851587
C       17.47157880      18.35908203     -18.78626881
H       17.81965205      19.95370162     -16.69461189
C       17.83978941      16.29170626     -19.62861684
C       17.91925479      15.06224840     -20.46813633
N       18.06742004      17.56849999     -17.83295357
C       18.23214978      19.19252973     -16.03401781
N       18.28352785      16.30692692     -18.36648032
H       18.38230858      14.24991379     -19.89666330
C       18.41729237      17.87993255     -16.49880398
H       18.43715224      20.53018935     -14.36325554
H       18.50812567      15.24246121     -21.37992002
C       18.58150544      19.50956055     -14.71921848
C       18.94101486      16.88953851     -15.65265048
H       19.06954405      15.87802757     -16.03113944
C       19.11244094      18.53387221     -13.86873928
C       19.28570572      17.22798362     -14.34307736
H       19.38813306      18.78337081     -12.84482266
H       19.69500067      16.46132690     -13.68441673
