15
Lattice="22.365526680000002 0.0 0.0 0.0 22.365526680000002 0.0 0.0 0.0 22.365526680000002" Properties=species:S:1:pos:R:3 dft_energy_ryd=-149.88248635 molecule_idx=1812 crystal_idx=1568 pbc="F F F"
H        8.85307867       9.76413627     -10.37319008
H        9.43979320       9.79261651     -12.66938536
H        9.31801842      11.05336128      -9.41393775
N        9.64645035      10.30037798     -10.02245235
C       10.31188488      10.40000600     -12.40028202
C       10.49486446      10.75587034     -11.05921427
N       11.13283392      10.75114077     -13.40897939
H       11.49508073      11.26425393      -8.71419467
C       11.62083693      11.54805568     -10.72905988
N       11.81104175      11.94530961      -9.40427986
C       12.18957108      11.51968555     -13.07959097
C       12.46744510      11.93879022     -11.77582667
H       12.73403773      12.31738863      -9.19493853
H       12.85099555      11.80980703     -13.89982253
H       13.34667446      12.55180736     -11.56745289
