22
Lattice="38.42166636 0.0 0.0 0.0 38.42166636 0.0 0.0 0.0 38.42166636" Properties=species:S:1:pos:R:3 dft_energy_ryd=-545.63113877 molecule_idx=1817 crystal_idx=1572 pbc="F F F"
O       14.50857899      17.05383771     -19.72792991
N       15.57646619      16.75533107     -20.21788181
O       15.91642941      15.84923194     -20.94727896
N       16.47806512      18.77012950     -19.07158885
N       16.72054034      17.70834457     -19.84148750
N       17.52318274      21.37701026     -17.50519740
C       17.71362033      19.29385211     -18.94753724
N       17.96524238      17.44907010     -20.24054547
C       18.18214445      20.45670204     -18.24138227
H       18.32603869      23.00226610     -16.54382706
N       18.51545847      22.18475514     -17.11890083
C       18.63980472      18.46951385     -19.67391173
C       19.57329973      20.78470475     -18.24888854
N       19.75970080      21.90357469     -17.51742525
C       20.04060488      18.79777945     -19.67748365
C       20.50733733      19.95094895     -18.95868329
N       21.09669857      18.17695962     -20.23990759
N       21.84747938      20.02677157     -19.08374253
N       22.09878443      18.96084272     -19.84604991
N       23.54613143      18.60176168     -20.22054829
O       23.63914344      17.61861684     -20.92280473
O       24.37310631      19.35585339     -19.75485521
