22
Lattice="29.56783284 0.0 0.0 0.0 29.56783284 0.0 0.0 0.0 29.56783284" Properties=species:S:1:pos:R:3 dft_energy_ryd=-353.80120568 molecule_idx=2024 crystal_idx=1747 pbc="F F F"
O       13.04932624      12.63608834     -15.45405482
H       12.90737110      14.95919107     -15.40715284
H       13.12378245      15.43442996     -16.96354811
N       13.60823066      15.30525367     -16.07319989
H       14.24502201      16.71679011     -15.42462699
C       14.15631614      12.89229739     -15.90710550
O       14.64855752      17.58470034     -15.05161684
N       14.68399192      15.88568090     -11.92802253
C       14.67731520      14.29881227     -16.20365677
O       14.83411449      14.51044006     -11.70055015
H       14.70104368      11.07041472     -15.95286080
H       15.06303764      14.30432951     -17.23303775
C       15.02958266      16.07353870     -13.19574652
C       15.03351026      17.47644342     -13.75792173
O       15.10112626      11.93879844     -16.17700388
C       15.27652554      13.91985107     -12.84382057
H       15.45005296      12.84970245     -12.78559134
C       15.42058708      14.84754792     -13.83731597
O       15.39576023      18.43946839     -13.09989558
C       15.86473798      14.64491909     -15.25527674
H       16.32099752      15.57063145     -15.63007440
H       16.61314454      13.84480478     -15.32205421
