21
Lattice="30.39687756 0.0 0.0 0.0 30.39687756 0.0 0.0 0.0 30.39687756" Properties=species:S:1:pos:R:3 dft_energy_ryd=-289.51609325 molecule_idx=2070 crystal_idx=1786 pbc="F F F"
H       13.67872832      16.87762002     -15.91218805
H       13.70971793      12.28425039     -17.33218841
N       14.19727742      12.76198197     -16.58294720
N       14.22986264      14.14268215     -16.54254270
H       14.79443766      19.07898497     -15.83412541
H       14.73440180      18.36477922     -14.19019305
C       14.77238644      16.91553403     -15.79999081
C       14.84945466      12.14379206     -15.55165444
H       14.83537504      15.84244586     -13.90206206
C       14.91816878      14.41528622     -15.45305574
S       15.05700855      10.53772451     -15.17642916
C       15.17221989      18.25775989     -15.20025275
H       15.19712090      16.82193086     -16.81053063
C       15.25599321      15.76020673     -14.91914542
N       15.31756186      13.24652091     -14.82907233
H       15.57046899      12.47374546     -13.05323595
N       16.03869381      13.18564750     -13.63143922
H       16.34613383      15.82488562     -14.78886014
O       16.61786509      18.29895562     -15.12128205
H       16.87350074      19.10565594     -14.64110413
H       16.95956238      12.78554994     -13.85364014
