43
Lattice="37.40290344 0.0 0.0 0.0 37.40290344 0.0 0.0 0.0 37.40290344" Properties=species:S:1:pos:R:3 dft_energy_ryd=-548.23177048 molecule_idx=2109 crystal_idx=1822 pbc="T T T"
H       14.23454336      17.88110743      20.05175316
H       14.88282922      15.90424375      18.51052171
C       15.20429797      17.75569078      19.57308405
C       15.54024867      16.73121868      18.77258887
H       16.03210585      19.68129092      20.30733744
C       16.31829873      18.78619231      19.74390287
H       16.50811719      16.22738715      20.94876974
N       16.58280967      19.21456347      18.35073665
C       16.95828475      16.83214210      18.21341612
N       16.93816420      18.13316251      17.50329625
H       17.21331692      16.06529327      17.47332906
O       17.14573927      21.49787793      18.39824736
C       17.18401995      20.37829884      17.88630943
C       17.49613137      16.65463197      20.81236598
C       17.58587766      18.08254365      20.30778370
C       17.76398464      18.60152015      16.48751085
N       17.79792648      19.99476495      16.67874004
C       17.96964783      16.91156058      19.39298208
H       18.08799527      21.16174128      14.93260428
H       18.24175412      16.33617732      21.53497971
O       18.30567849      17.94785006      15.59560841
H       18.63991973      19.81643463      21.21255278
C       18.60372207      20.89200620      15.86478489
C       18.84578843      18.91020848      20.63303708
H       19.54644358      20.38741877      15.61352980
H       18.78872631      21.79648487      16.45787818
N       19.37345507      19.37384728      19.30420679
C       19.48796188      16.95079591      19.11241789
N       19.74184455      18.27895496      18.45619756
H       19.82509758      16.18552805      18.40445134
C       19.95304754      18.03949649      21.19887562
C       20.28997408      17.00884175      20.40029949
C       20.39866118      20.33726329      19.25593059
O       20.47747635      21.36574419      19.92227632
H       20.45729324      18.29502835      22.12907835
C       21.00175557      18.56301873      17.89240480
H       21.10475936      16.31334502      20.59408446
N       21.27805268      19.88586573      18.26226069
O       21.68779293      17.81945153      17.19593686
H       22.60288766      21.46340725      18.49409207
C       22.43640552      20.63334371      17.79709541
H       23.30674759      19.96654837      17.76587425
H       22.25359270      21.03088469      16.78853763
