69
Lattice="53.6719932 0.0 0.0 0.0 53.6719932 0.0 0.0 0.0 53.6719932" Properties=species:S:1:pos:R:3 dft_energy_ryd=-458.56902155 molecule_idx=2241 crystal_idx=1939 pbc="F F F"
H       23.09424525      22.05471219      25.31072793
H       23.26692009      24.61567735      24.93359729
H       23.73748952      22.23892563      26.95853301
H       23.87097345      24.76458228      26.60534353
H       23.88366235      26.00633822      23.39769291
C       24.02134968      22.11393767      25.90238057
C       24.17397671      24.62262127      25.55840119
H       24.54194218      21.15103032      25.80496383
H       24.77318023      22.41972008      29.51085906
H       24.86526472      26.08972981      20.97527473
C       24.89164937      26.25306403      23.76669528
C       24.90352457      23.27592151      25.43298639
H       24.99751223      27.34737645      23.77121916
N       24.97697566      25.77630434      25.14838503
H       25.07273001      24.95641090      29.33480508
H       25.20970639      23.12261993      24.38692502
H       25.60110462      22.41230494      31.08408013
C       25.76015846      22.36372948      29.99551726
H       25.81880456      23.33222561      26.04070253
H       25.82853164      24.56935737      22.77122883
C       25.85238227      26.27865948      21.42528938
C       25.89639468      26.32081441      26.00927391
H       25.90442366      24.99300950      30.90973718
C       25.95140841      25.66205229      22.82465440
N       25.94600926      25.80760771      27.26249962
H       25.99427301      27.36966735      21.47045978
C       26.05319634      24.87834981      29.82415894
H       26.19419382      21.38131538      29.76238581
H       26.41167472      27.46584897      31.61654851
H       26.46388382      30.15079758      24.63435219
H       26.61474896      25.86653700      20.74946950
C       26.66423668      23.50394857      29.51605848
N       26.67366201      27.32183953      25.52873926
H       26.81670255      23.44206716      28.42831479
C       26.82306932      26.43763730      28.08147356
H       26.82894435      31.63704748      22.61396643
N       26.89257690      25.98888836      29.37464441
H       26.93918579      25.86378140      23.26378095
H       27.10374567      28.53953908      30.38588172
H       27.17183287      29.93833796      22.21256250
C       27.34743811      27.74267310      31.10464520
C       27.48078390      30.42421021      24.31585842
C       27.49709908      30.79137181      22.82768825
C       27.54463364      27.82891551      26.43541635
N       27.63957684      27.46365662      27.73792467
H       27.65587074      23.43167905      29.99205659
H       27.79413007      31.28713961      24.92380587
C       27.87040965      26.53514136      30.31481097
H       27.87599044      30.12629042      28.31600062
H       28.02023090      29.10478503      32.68272752
H       28.08949321      28.38238478      23.97686921
H       28.14905691      25.72599013      31.00981916
H       28.35301813      31.33503323      27.10703039
C       28.38408181      28.23286837      32.12174008
C       28.40568533      29.23074378      24.59890598
N       28.41821386      28.79112590      25.99446899
H       28.50999422      31.07170369      22.49906362
H       28.62785708      27.44248034      32.84902157
C       28.73523319      30.54667505      27.77315451
H       28.76987955      26.83015224      29.75724764
H       29.31787736      31.94084435      29.35526317
H       29.31926827      28.52147968      31.61749812
C       29.35274603      29.42147821      26.92896410
H       29.44098158      29.49242241      24.32575653
H       29.74529135      28.64792440      27.60478036
C       29.75574129      31.12942779      28.75697617
H       30.11632366      30.35482260      29.45100930
H       30.19008425      29.81872658      26.33377583
H       30.63083270      31.53758800      28.22722016
