15
Lattice="27.31211784 0.0 0.0 0.0 27.31211784 0.0 0.0 0.0 27.31211784" Properties=species:S:1:pos:R:3 dft_energy_ryd=-321.60963158 molecule_idx=2305 crystal_idx=1997 pbc="F F F"
S       12.13058387      11.80631503     -15.17209219
H       12.17652484      11.95098572     -12.20220450
C       12.96266564      12.82249370     -14.02451086
C       12.83364318      12.70633591     -12.63162482
C       12.76534370      12.52494058     -16.65089133
S       12.35626563      12.01948220     -18.15533367
C       13.80795422      13.81312858     -14.58152255
C       13.54678776      13.56563365     -11.80157768
H       13.46045704      13.48367139     -10.71966133
S       13.88204456      13.84711989     -16.32909999
C       14.51580641      14.68589040     -13.75030644
C       14.38741476      14.55652028     -12.35513220
H       15.16007117      15.45731073     -14.16926003
C       15.11474213      15.43210391     -11.49016932
N       15.71442576      16.14279880     -10.78134377
