14
Lattice="24.912407520000002 0.0 0.0 0.0 24.912407520000002 0.0 0.0 0.0 24.912407520000002" Properties=species:S:1:pos:R:3 dft_energy_ryd=-333.63979087 molecule_idx=2561 crystal_idx=2221 pbc="F F F"
H        9.21337660      12.46479288     -11.78381862
H        9.52402210      13.93490470     -12.74470343
N        9.84112382      13.09240511     -12.28027018
O       10.50841361      10.89888743     -11.08446135
C       11.13730261      12.73744409     -12.34449879
N       11.45516935      11.50966659     -11.65590833
N       12.03741075      13.46736084     -12.98904799
N       12.69437787      11.03513459     -11.62193093
N       13.26799236      12.95600669     -12.93201867
C       13.60680620      11.78068407     -12.27476696
N       14.33383915      13.51957675     -13.51450821
N       14.92036740      11.55418399     -12.41745793
N       15.33030281      12.62232658     -13.17635309
O       16.49417499      12.79130530     -13.54493509
