21
Lattice="24.57303156 0.0 0.0 0.0 24.57303156 0.0 0.0 0.0 24.57303156" Properties=species:S:1:pos:R:3 dft_energy_ryd=-459.75214858 molecule_idx=2565 crystal_idx=2225 pbc="F F F"
H        9.93062127      11.81126085     -12.47372320
H       10.35704663      12.38414852     -10.82024220
C       10.74403906      12.15293995     -11.81644097
N       11.30926142      13.36230434     -12.41948951
H       11.37723255      12.87120109     -14.43539989
O       11.24903559      14.40354109     -10.40055894
N       11.71246191      11.05715926     -11.72718373
O       11.81094660      11.32476646      -9.47240306
H       11.79616653      10.39447097     -13.69050201
N       11.71677708      14.42722772     -11.54052873
C       12.08738203      13.14868369     -13.64201305
N       12.36869212      10.84545934     -10.46134831
C       12.48898661      10.81436246     -12.94565073
H       12.61528933      14.06851555     -13.90668051
O       12.42784358      15.30199292     -12.03865408
N       13.04089786      12.04271984     -13.52211191
H       13.29781662      10.10976553     -12.73686871
O       13.37774658      10.13916905     -10.48080048
N       14.40989719      12.36914514     -13.20787729
O       14.75935153      13.52892580     -13.43391942
O       15.11710943      11.43684194     -12.82220484
