14
Lattice="23.05687356 0.0 0.0 0.0 23.05687356 0.0 0.0 0.0 23.05687356" Properties=species:S:1:pos:R:3 dft_energy_ryd=-219.34358185 molecule_idx=2635 crystal_idx=2290 pbc="F F F"
O        9.39097141      10.11230484     -12.25772344
H        9.63325806      10.93725196     -12.79883436
O       10.23759330       9.04088823     -10.44453092
C       10.29306911       9.96334808     -11.25417236
N       10.64049592      12.34183999     -13.12751792
H       10.82586200      13.19180636     -13.66625931
C       11.34401823      11.01009441     -11.21135121
C       11.43436074      12.14518630     -12.11785039
C       12.40676164      11.08399134     -10.35934998
N       12.52558529      12.92195062     -11.65397154
H       12.65223430      10.43475729      -9.52448321
H       13.14727978      13.33007904     -12.35247620
N       13.22201756      12.14963266     -10.68110180
H       13.61668895      12.70706510      -9.92057372
