16
Lattice="25.53665184 0.0 0.0 0.0 25.53665184 0.0 0.0 0.0 25.53665184" Properties=species:S:1:pos:R:3 dft_energy_ryd=-164.48537384 molecule_idx=2706 crystal_idx=2351 pbc="F F F"
H       10.44805581      13.24204355     -14.73745475
H       10.92999965      11.82904961     -13.76535738
H       10.97663457      13.98718930     -12.47189543
C       11.29869510      12.76491235     -14.21640305
C       11.82096561      13.71305012     -13.12835101
H       12.13909284      11.27686421     -11.71251503
H       12.18111319      14.64765669     -13.58390616
O       12.31405749      12.36550618     -15.15221458
H       12.90591842      13.12650820     -15.29651678
N       12.90849877      11.93763527     -11.68997766
C       12.95889922      13.14992904     -12.33785534
C       14.13309050      11.73474929     -11.07254240
N       14.14380096      13.72786079     -12.16269916
H       14.34610233      10.84034273     -10.49858740
C       14.87619029      12.85332805     -11.37473314
H       15.89454595      13.07903521     -11.07465139
