20
Lattice="30.318608880000003 0.0 0.0 0.0 30.318608880000003 0.0 0.0 0.0 30.318608880000003" Properties=species:S:1:pos:R:3 dft_energy_ryd=-287.58770218 molecule_idx=2751 crystal_idx=2393 pbc="F F F"
O       11.84766779      15.82173578     -12.54775536
H       11.93110231      16.55973925     -13.22301607
O       12.73478913      17.31484675     -14.55107527
C       12.84871560      14.93827696     -12.76682322
O       13.00135647      13.94037783     -12.07105111
C       13.61325273      16.45898541     -14.71074113
C       13.77787635      15.24471403     -13.92002453
O       14.52440956      16.68767289     -15.74515841
C       14.78673328      14.36742427     -14.20829671
H       14.88006427      13.47001830     -13.59200108
C       15.54149336      15.79863752     -16.02674949
C       15.70267370      14.61124887     -15.27571511
H       16.24520887      17.04871985     -17.63018257
C       16.40081792      16.12321647     -17.07832753
C       16.76534407      13.74080731     -15.61089941
H       16.89228649      12.82470355     -15.03361041
C       17.44161326      15.24688791     -17.38315154
C       17.62671136      14.05750962     -16.65277507
H       18.12421935      15.48891513     -18.19770672
H       18.44712315      13.38902131     -16.90839826
