44
Lattice="43.8889374 0.0 0.0 0.0 43.8889374 0.0 0.0 0.0 43.8889374" Properties=species:S:1:pos:R:3 dft_energy_ryd=-358.16130377 molecule_idx=2794 crystal_idx=2429 pbc="F F F"
H       16.88103871      20.38609972     -24.62004651
H       17.30339446      22.68404738     -23.86964826
C       17.60588944      20.55379515     -23.82240830
C       17.82416562      21.86187374     -23.37798562
H       18.23699892      18.47071896     -23.81627087
C       18.35277943      19.44644459     -23.34163621
H       18.62312141      24.67512383     -23.66118840
C       18.75492733      22.12508717     -22.34424957
C       19.26171249      19.66333271     -22.31468240
C       19.34505427      20.96154712     -21.76701563
C       19.39484888      23.42190821     -22.03767497
C       19.40455289      24.57134433     -22.90690860
H       20.03830014      17.97006484     -21.11932613
C       20.39164177      23.42202192     -21.04941754
C       20.40298621      21.00154422     -20.81583940
C       20.40616289      18.80910346     -21.73346089
H       20.45983506      26.26607698     -23.68256863
C       20.46158972      25.47762377     -22.92796678
C       20.84206305      22.23387939     -20.37820801
H       21.00892005      18.36770904     -22.54338945
C       21.21477548      19.81832592     -20.90044180
C       21.51228313      24.31270475     -21.11176143
C       21.62678632      25.29318482     -22.10313597
C       22.21486963      22.37703697     -20.07957160
C       22.57226610      19.95819859     -20.59450843
C       22.65923604      23.65659024     -20.55809244
C       22.96723723      25.74080602     -22.37955432
C       23.02751982      21.27477016     -20.23842355
H       23.12486580      26.54629585     -23.09904344
H       23.73517746      18.57272681     -21.86602384
C       23.83752130      19.15459476     -20.93691392
C       23.95226890      23.89321163     -21.05028442
H       24.07736973      18.43436544     -20.13565482
C       24.07701020      25.06030866     -21.88637335
C       24.36766094      21.48073501     -20.67241816
C       24.89956087      22.75859439     -21.01934136
C       24.92030380      20.24449777     -21.07116217
H       25.06455566      25.35467347     -22.24478157
C       26.18807088      20.24928818     -21.63666503
C       26.19612021      22.72178607     -21.58650073
H       26.67878538      19.33346787     -21.97058865
H       26.69313395      23.64771166     -21.87757335
C       26.82774206      21.50017896     -21.83998498
H       27.82818033      21.50988339     -22.27459232
