38
Lattice="47.790517320000006 0.0 0.0 0.0 47.790517320000006 0.0 0.0 0.0 47.790517320000006" Properties=species:S:1:pos:R:3 dft_energy_ryd=-473.48960293 molecule_idx=2818 crystal_idx=2448 pbc="F F F"
H       17.31203708      21.97557575      23.91597418
C       18.18103633      22.50464032      24.30701000
H       18.31929146      21.28441979      26.09001057
H       18.29702500      23.86514365      22.62952553
C       18.73481755      23.56639820      23.58239884
C       18.74401192      22.11766152      25.52977122
C       19.85043251      24.24675951      24.07817242
C       19.86268010      22.79078076      26.02744778
H       20.30232306      25.06915959      23.52382538
H       20.32434420      22.49507221      26.96992548
C       20.41632001      23.85142912      25.29824521
H       20.57269125      25.22495630      27.56404584
H       20.87728851      26.50736820      26.35090439
C       21.29261713      25.60495453      26.82723146
N       21.54921866      24.56035261      25.82847952
H       22.23822826      25.85754236      27.31881251
C       22.81987104      24.39050181      25.33789759
S       22.89675595      23.01869257      24.08958292
O       23.80174940      25.03939210      25.68772659
O       23.98465933      25.03939461      22.09868448
S       24.88965100      23.01869460      23.69682701
C       24.96652332      24.39051552      22.44850994
H       25.54816484      25.85754251      20.46758818
N       26.23718422      24.56035576      21.95792233
C       26.49377857      25.60495256      20.95916246
H       26.90911628      26.50736612      21.43548086
H       27.21369813      25.22494829      20.22234387
C       27.37008473      23.85143469      22.48815731
H       27.46205593      22.49507072      20.81648138
H       27.48409130      25.06916528      24.26257571
C       27.92371792      22.79078382      21.75895540
C       27.93597479      24.24676457      23.70822625
C       29.04238813      22.11765937      22.25663451
C       29.05158848      23.56639832      24.20400274
H       29.48938409      23.86514813      25.15687516
H       29.46710194      21.28441697      21.69639407
C       29.60536453      22.50464157      23.47939218
H       30.47436388      21.97557651      23.87042960
