46
Lattice="46.28795976 0.0 0.0 0.0 46.28795976 0.0 0.0 0.0 46.28795976" Properties=species:S:1:pos:R:3 dft_energy_ryd=-710.61685965 molecule_idx=2890 crystal_idx=2514 pbc="F F F"
H       17.81190541      20.01244730      19.48683692
O       18.21847984      20.51994243      20.22111441
H       18.75009703      22.15276945      21.96137335
H       19.12283978      24.60484563      26.15833930
C       19.46311540      19.96406045      20.41077328
C       19.69848313      21.69901121      22.23732646
O       19.79897039      23.17366444      24.10364497
O       19.87622286      19.03371552      19.72550136
C       19.97548213      24.99527465      25.60131700
C       20.20988034      20.59466917      21.53664185
C       20.42109588      22.18874472      23.32111240
C       20.48285524      24.30215604      24.48452941
N       20.53543557      26.14229477      26.00402263
C       21.42815423      20.01171035      21.90927643
N       21.52901286      24.73080526      23.77685217
C       21.63159180      21.62274484      23.72561425
C       21.58185043      26.60148985      25.29460780
H       21.80818467      19.14850365      21.36607842
C       22.05405883      25.89204266      24.18278950
H       22.05444117      27.53348774      25.60628257
C       22.11642172      20.52587688      23.00811413
H       22.15796039      22.00466343      24.59721162
O       23.04979106      26.48248216      23.43074414
O       23.22408549      19.79146081      23.43076174
H       24.11587639      24.26924858      24.59716068
C       24.15739191      25.74799881      23.00799996
H       24.21952104      18.74041538      25.60615880
C       24.21983256      20.38193265      24.18275579
H       24.46559516      27.12528322      21.36591218
C       24.69213703      19.67243679      25.29450648
C       24.64221230      24.65112800      23.72551667
N       24.74486355      21.54318474      23.77686451
C       24.84559612      26.26206974      21.90908152
N       25.73854581      20.13157185      26.00394536
C       25.79103823      21.97177445      24.48455637
C       25.85278009      24.08515245      23.32108252
C       26.06394139      25.67912119      21.53654972
C       26.29848026      21.27862114      25.60128727
O       26.39770855      27.24017618      19.72550751
O       26.47489754      23.10028898      24.10369318
C       26.57535121      24.57486935      22.23728963
C       26.81078451      26.30975075      20.41078634
H       27.15111435      21.66901911      26.15832334
H       27.52374870      24.12109121      21.96136507
O       28.05539300      25.75386136      20.22113484
H       28.46200503      26.26137096      19.48688657
