15
Lattice="26.77026996 0.0 0.0 0.0 26.77026996 0.0 0.0 0.0 26.77026996" Properties=species:S:1:pos:R:3 dft_energy_ryd=-203.92830287 molecule_idx=2929 crystal_idx=2549 pbc="F F F"
H       11.72810240      11.97263062     -16.10432728
C       12.26312349      12.34016323     -15.23279907
N       12.41260390      13.61531046     -14.91150277
H       12.89249873      10.46028951     -14.37436503
N       12.86395428      11.47465044     -14.33127472
H       12.90046547      16.19943794     -13.94348805
C       13.15368989      13.57782163     -13.73487245
N       13.42141021      15.91286805     -13.12384898
C       13.44927929      12.25883283     -13.35167476
C       13.64447261      14.59413465     -12.88342876
H       13.80275970      16.60094220     -12.48576789
N       14.14749076      11.86485254     -12.27029914
N       14.35736576      14.24234441     -11.78780126
C       14.56209066      12.92723361     -11.55206648
H       15.14276682      12.70056184     -10.65455723
