20
Lattice="27.93398076 0.0 0.0 0.0 27.93398076 0.0 0.0 0.0 27.93398076" Properties=species:S:1:pos:R:3 dft_energy_ryd=-241.14194559 molecule_idx=2932 crystal_idx=2552 pbc="F F F"
H       10.89699623      14.01233600     -15.42434889
H       10.86293625      15.70448849     -16.02993805
H       10.92285069      15.38819306     -14.25686615
C       11.24647460      15.04095688     -15.24904412
S       12.66050141      13.05545563     -13.57642539
O       12.69140993      15.11689934     -15.35677095
C       13.42604716      14.28029213     -14.58957217
H       13.76410988      11.74941348     -11.01088512
H       14.22825254      13.47356238     -11.07792605
C       14.30442378      12.46819872     -13.00552102
C       14.44105104      12.47440572     -11.48154399
H       14.41989419      11.44778198     -13.39912781
C       14.79684169      14.34248445     -14.56845330
H       15.33424532      16.35756293     -15.13922858
C       15.37302829      13.35714453     -13.68618444
H       15.48051136      12.21054403     -11.24016487
H       15.56577498      15.14984249     -16.42039846
C       15.63753720      15.31840785     -15.33504360
O       16.57864259      13.18169231     -13.44014348
H       16.68388884      15.18575568     -15.02783153
