9
Lattice="19.27854432 0.0 0.0 0.0 19.27854432 0.0 0.0 0.0 19.27854432" Properties=species:S:1:pos:R:3 dft_energy_ryd=-146.8057748 molecule_idx=2962 crystal_idx=2580 pbc="F F F"
H        8.32352007       8.75594443      -9.95373529
H        8.66777930      11.18201738     -10.23967103
C        9.37784760       9.06772037      -9.96613702
C        9.58697130      10.59613133     -10.12518833
H        9.91108020       8.45052274     -10.70318888
C       10.00336433       8.97881375      -8.57472657
O       10.22518468       8.05833864      -7.81962900
H       10.30924016      10.87117176     -10.90192687
S       10.31802714      10.76235434      -8.43881173
