52
Lattice="46.8259974 0.0 0.0 0.0 46.8259974 0.0 0.0 0.0 46.8259974" Properties=species:S:1:pos:R:3 dft_energy_ryd=-360.5813008 molecule_idx=3019 crystal_idx=2629 pbc="F F F"
H       20.75393087      21.02469581     -23.32312392
H       20.83788752      23.38651055     -23.15605872
H       20.99189611      22.16937454     -24.99619242
H       21.60515883      22.63976381     -19.19537937
H       21.61631031      20.02698049     -22.13609032
C       21.72612212      20.87656201     -22.83064477
H       21.82585549      24.12946849     -21.89602459
C       21.83393143      23.36756993     -22.68852400
H       21.79534966      22.28493560     -26.56775895
N       21.98984185      22.07060377     -22.00671985
C       21.96967403      22.28587024     -25.48193375
H       21.98780713      26.04466390     -26.91403237
H       21.97011016      24.42268086     -17.48713914
H       22.40223006      28.50213748     -26.84445585
N       22.48393969      23.63355884     -25.13638094
C       22.50481730      23.25687320     -19.22467266
C       22.70780302      24.26095764     -18.27442503
C       22.80237677      20.51190288     -23.84896339
C       22.90539025      23.76930468     -23.72871418
C       22.90655555      26.43497679     -26.47230691
C       22.89592364      21.14748592     -25.10639433
H       23.18242795      20.95858620     -20.72986640
H       23.16735120      24.82643478     -23.58262937
C       23.24485176      21.93012878     -21.25144127
C       23.13578557      27.81215679     -26.42411218
H       23.29812259      23.77741467     -27.05306081
C       23.45050189      23.03410884     -20.23864606
C       23.58970220      24.04352648     -26.02444105
H       23.67440298      19.04394542     -22.53702680
C       23.84878980      25.53373613     -25.95176421
C       23.75438493      19.53769009     -23.50828538
H       23.83451801      23.18915139     -23.53812193
C       23.85877269      25.05916279     -18.32885167
C       23.92578346      20.77705422     -25.98587288
H       23.98070452      21.25670073     -26.96534592
H       24.13784256      21.87223199     -21.90729354
H       24.01751873      25.84084268     -17.58587293
C       24.30914851      28.30817606     -25.84077452
H       24.52868899      23.49305952     -25.79457774
C       24.59284917      23.84490336     -20.29206876
H       24.49078886      29.38263327     -25.80755752
C       24.78971984      19.19161864     -24.38026374
C       24.79985193      24.85271241     -19.34232087
C       24.87287276      19.81255747     -25.63064350
C       25.01587488      26.03955058     -25.36419472
H       25.32338435      23.68268716     -21.08780552
C       25.24671211      27.41956964     -25.30389706
H       25.52287437      18.43851995     -24.08903727
H       25.66753431      19.54399682     -26.32645721
H       25.74661805      25.34320655     -24.94730828
H       25.69204036      25.47816973     -19.39495677
H       26.15769353      27.79991382     -24.84059305
