13
Lattice="21.66878196 0.0 0.0 0.0 21.66878196 0.0 0.0 0.0 21.66878196" Properties=species:S:1:pos:R:3 dft_energy_ryd=-234.93823068 molecule_idx=3021 crystal_idx=2631 pbc="F F F"
H        9.43566171      11.06632712     -10.32920439
O       10.01744410      11.09851349     -13.05317318
H       10.71303517       8.69560739     -11.36309300
C       10.29831691      10.33111667     -12.15117834
C       10.44542776      10.77070364     -10.64534362
H       10.43770314       9.54425390      -8.96887958
O       10.73978525      13.13852922     -10.86607402
N       10.93620217       9.63172510      -9.85454968
O       10.49260878       9.00367844     -12.30090902
C       11.37243759      11.98034017     -10.54659645
H       11.41326860      13.85393556     -10.83827450
H       11.93309627       9.76848201      -9.65209885
O       12.55029108      11.90206590     -10.21590391
