46
Lattice="44.85377484 0.0 0.0 0.0 44.85377484 0.0 0.0 0.0 44.85377484" Properties=species:S:1:pos:R:3 dft_energy_ryd=-393.64014727 molecule_idx=3075 crystal_idx=2677 pbc="F F F"
H       19.66156571      24.54715424     -19.99540995
H       19.67971846      24.94064967     -22.05071480
H       19.74459917      24.31884981     -24.40472614
H       20.26509086      26.31478321     -23.01751662
H       20.52052626      25.14563890     -18.56571338
C       20.53000123      25.29952282     -22.64720228
C       20.65876436      24.76711303     -19.58871312
C       20.69988686      24.36484896     -23.85218776
H       20.84621090      26.75780146     -20.47468393
N       21.10984714      23.04839926     -23.39097795
H       21.20231431      23.12304648     -26.03833896
H       21.22467677      23.82630289     -19.55190148
H       21.26393234      22.90817610     -22.38107369
C       21.41148380      25.79911018     -20.43202865
H       21.45138566      24.76660135     -24.55409970
C       21.70909469      22.11992953     -24.18076803
N       21.71596933      25.31131889     -21.78704235
C       21.71459925      22.27024369     -25.59673271
O       21.85099055      21.56268173     -21.34737101
H       22.34249707      21.49406880     -27.49289678
H       22.36781090      26.02262132     -19.93973532
C       22.35430292      21.34909221     -26.41164314
C       22.36583002      20.96986814     -23.60750868
C       22.39526307      20.76356803     -22.15819747
H       22.60561812      20.06145243     -19.59316112
H       22.71079200      27.13573058     -22.28469504
H       22.83938709      25.82909379     -23.47485520
C       22.84257792      26.03580476     -22.39535660
C       23.01717244      20.24142614     -25.86298890
C       23.01896296      20.05200057     -24.48071205
C       23.09759787      19.56090025     -21.62173143
C       23.10911296      19.33882153     -20.23488124
H       23.54184847      19.52005873     -26.48730173
C       23.74181239      18.64315166     -22.47749929
C       23.74605017      18.21482542     -19.70894286
C       23.75950357      18.86523685     -23.94873221
H       23.74914134      18.04702332     -18.63131719
C       24.19612674      25.60109899     -21.82743426
H       24.29136427      25.84020261     -20.75914145
H       24.32276702      24.51611555     -21.94661879
C       24.37906791      17.29732480     -20.56301817
C       24.37790590      17.51269351     -21.94061449
O       24.37395261      18.09432769     -24.70608747
H       24.86002038      16.81966030     -22.62999778
H       24.87021524      16.41605226     -20.14896790
H       25.01125690      26.11422356     -22.35737704
