23
Lattice="25.39493208 0.0 0.0 0.0 25.39493208 0.0 0.0 0.0 25.39493208" Properties=species:S:1:pos:R:3 dft_energy_ryd=-250.37813946 molecule_idx=3076 crystal_idx=2678 pbc="F F F"
H        9.98285318      13.48302137     -12.53115061
O       10.65723303      11.44279226     -12.44201449
H       10.82979885      12.38850949     -10.52532811
C       10.88048681      12.86769742     -12.65448677
H       11.14214384      13.73795936     -14.58496422
C       11.40395913      12.22102378     -11.44375617
C       11.78574250      13.30651042     -13.80323638
H       11.96648887      11.60571672     -15.21320622
C       12.52279469      12.12182025     -14.42298001
O       12.56436489      14.99053978     -12.03197726
C       12.75494866      14.39713414     -13.35140229
C       12.84512351      11.91682063     -11.17063515
H       12.99220066      11.42688666     -10.20573834
H       13.01910149      15.12246028     -14.12834691
C       13.48909177      11.31476137     -13.66535744
H       13.59228818      10.27018671     -13.98000950
C       13.75312270      14.17040168     -12.29674442
C       13.86805650      11.52655834     -12.23188260
O       13.94953165      12.25609292     -14.69461652
C       13.95912430      12.88728764     -11.55095416
H       14.60775739      10.80168083     -11.88760694
H       14.66603762      14.77298051     -12.36275369
H       14.75875638      12.96216417     -10.81185849
