22
Lattice="32.24182752 0.0 0.0 0.0 32.24182752 0.0 0.0 0.0 32.24182752" Properties=species:S:1:pos:R:3 dft_energy_ryd=-240.30704667 molecule_idx=3091 crystal_idx=2692 pbc="F F F"
H       12.93447186      18.74892370     -15.44826969
S       13.04595725      15.98274277     -14.55480013
H       13.65972385      18.67346527     -13.81575206
C       13.87354302      18.82525521     -14.88256617
H       14.36665847      19.78766277     -15.05899162
C       14.46789507      16.51915852     -15.23916022
H       14.48029976      13.85977464     -15.35420840
O       14.81940556      17.83434178     -15.35405722
N       15.31202528      14.28373082     -15.76308541
C       15.48294367      15.65841280     -15.78756288
C       16.38118906      13.67441134     -16.34820341
H       16.44716248      12.59458878     -16.43471654
H       16.72426068      17.86326524     -17.34962566
C       16.72144733      15.91629291     -16.41784718
C       17.27976312      14.65857718     -16.76982192
C       17.34835892      17.25147119     -16.68039185
H       17.46696031      17.82993838     -15.75252309
H       18.33473369      17.12311495     -17.14534379
H       18.56842107      14.74974994     -18.51205836
C       18.58960968      14.41664068     -17.46208817
H       18.83734795      13.34677880     -17.45586727
H       19.41186235      14.95574281     -16.96709942
