17
Lattice="26.57340756 0.0 0.0 0.0 26.57340756 0.0 0.0 0.0 26.57340756" Properties=species:S:1:pos:R:3 dft_energy_ryd=-182.51016293 molecule_idx=3168 crystal_idx=2756 pbc="F F F"
H       11.37281464      10.77829987     -12.25681959
H       12.20036933      11.04869232     -14.75791035
H       12.06511206      12.81599665     -14.92892499
C       12.68058762      12.00221178     -14.50869961
C       12.44087012      11.01913167     -12.12425817
H       12.63132181      11.26393060     -11.07279379
C       12.83815141      12.16354561     -13.01318952
H       13.00404156      10.10886938     -12.38837569
N       13.29783885      13.23341709     -12.44392535
H       13.65915381      12.02890572     -15.01989626
N       13.65997088      14.27031324     -13.25763347
H       13.72992925      14.13064198     -14.26861990
O       14.45654160      15.60248780     -11.51183788
C       14.24949180      15.42032222     -12.70892796
N       14.61821108      16.33659205     -13.70296908
H       14.06377191      16.37745232     -14.55498117
H       14.87628012      17.24364759     -13.32469507
