17
Lattice="25.654028399999998 0.0 0.0 0.0 25.654028399999998 0.0 0.0 0.0 25.654028399999998" Properties=species:S:1:pos:R:3 dft_energy_ryd=-152.24633917 molecule_idx=3197 crystal_idx=2784 pbc="F F F"
H       10.01534676      13.72656320     -12.02797127
H       10.59949001      13.50747144     -10.35983189
C       10.89307929      13.82545162     -11.36712776
H       11.16293189      14.89311720     -11.33416568
H       11.51186289      14.45545356     -14.05190852
C       12.03628387      12.99576353     -11.85208062
N       12.54749178      11.97915448     -11.13067873
N       12.48685813      14.15605021     -14.04300059
H       12.77761727      13.90193402     -14.98683494
C       12.72095647      13.14172634     -13.08844170
N       13.54888131      11.49333314     -11.90118836
C       13.70316852      12.15684048     -13.09713144
H       14.09904488      10.71291824     -11.56316809
H       14.47238798      12.17829590     -15.09522866
C       14.76429658      11.82837388     -14.09395871
H       14.93633978      10.74353062     -14.16173828
H       15.72678392      12.30684339     -13.84836613
