22
Lattice="28.526526 0.0 0.0 0.0 28.526526 0.0 0.0 0.0 28.526526" Properties=species:S:1:pos:R:3 dft_energy_ryd=-331.1831192 molecule_idx=3200 crystal_idx=2787 pbc="F F F"
O       12.28906335      14.11818955     -15.65967666
H       12.87106479      16.68121828     -12.81526208
O       12.59995590      12.25660106     -13.95986352
H       12.66882931      16.33244247     -14.55476941
N       12.87395487      14.65423571     -13.28149099
H       13.10573505      14.92949803     -11.23144476
S       12.95145601      13.54567206     -14.50521836
C       13.20496308      16.04625367     -13.64552397
H       13.13095361      13.21991482     -11.75109766
C       13.46732273      14.23160348     -11.99769807
H       13.80664144      15.09733826     -16.82183325
H       14.28853860      16.18659204     -13.79444322
H       14.57055231      14.26657488     -12.02711090
N       14.60093674      13.42236495     -14.94655049
N       14.77706171      15.25687245     -16.55442039
H       15.20019397      11.80703155     -13.61472946
C       15.34523479      14.24235267     -15.80705741
H       15.38530870      15.55661360     -17.31266357
C       15.53456497      12.57203075     -14.30311421
N       16.63230120      13.95032456     -15.75498004
C       16.74759275      12.91837115     -14.82356539
H       17.71279037      12.47292029     -14.60250236
