39
Lattice="41.16450996 0.0 0.0 0.0 41.16450996 0.0 0.0 0.0 41.16450996" Properties=species:S:1:pos:R:3 dft_energy_ryd=-529.39651859 molecule_idx=45 crystal_idx=41 pbc="F F F"
H       18.22420025      17.24637003     -23.67753180
O       18.22534593      19.47602376     -24.80977814
H       18.35367860      16.89153066     -21.20590507
O       18.49254061      22.20180843     -23.97594722
C       18.72896932      19.77651500     -23.73679641
N       18.83094074      23.38924031     -23.34176295
C       18.96552110      21.14884115     -23.23488915
C       19.15023951      17.47988670     -23.13146674
O       19.18145115      18.89878315     -22.79089249
C       19.24580184      16.70267188     -21.82721844
H       19.27538773      15.62857882     -22.07101574
H       19.52130615      18.76851536     -20.39479666
C       19.50315178      23.03234350     -22.24590769
C       19.61652277      21.62060510     -22.12846447
O       19.77817639      25.25671760     -21.31675371
H       19.85180275      17.52002764     -19.15248083
H       20.01251664      17.27205989     -23.78134156
C       20.01855770      24.05968274     -21.29335234
H       20.09669222      21.05731677     -21.33821566
C       20.23987801      18.00132498     -20.06836623
O       20.44427257      17.01587270     -21.10121254
H       20.44132330      24.62496328     -18.68821280
O       20.79918721      23.42944168     -20.36277129
C       21.29772667      24.27118856     -19.27934645
O       21.35172284      19.62895347     -18.74882906
O       21.44820276      22.43066854     -17.75748222
C       21.58111724      18.66120245     -19.77959335
H       21.62621576      20.83249119     -16.51399351
H       21.81897808      25.14207875     -19.70124692
H       21.96724505      19.14888314     -20.69561470
C       22.22659632      23.41596677     -18.44661474
C       22.23225266      21.32123126     -17.28991873
H       22.32546163      17.90983073     -19.45262601
C       22.55582074      20.30849809     -18.38072543
H       22.76129357      24.06036798     -17.72048612
H       22.99719307      20.80630423     -19.26762225
H       22.97697409      22.94279007     -19.10575355
H       23.17324526      21.67595389     -16.82845695
H       23.30181836      19.58379806     -17.99593846
