17
Lattice="25.534535039999998 0.0 0.0 0.0 25.534535039999998 0.0 0.0 0.0 25.534535039999998" Properties=species:S:1:pos:R:3 dft_energy_ryd=-264.21951205 molecule_idx=4 crystal_idx=4 pbc="F F F"
O        9.05549500      11.78940860     -12.53875669
O       10.03628347      14.06717822     -12.82960678
S       10.08630978      12.62769199     -13.15338634
O       10.41952701      12.32201250     -14.55979871
H       11.53660302      12.30841800     -11.21077129
C       11.66836513      12.10495273     -12.28267006
H       11.79323837      11.02944395     -12.47218465
H       12.58384939      14.01164706     -12.73226513
C       12.74508296      12.94101574     -12.91491491
H       12.80542705      12.75810949     -13.99606269
H       14.08798413      12.74571540     -11.31984384
N       14.13172742      12.59983144     -12.33825064
H       14.28054705      11.59072689     -12.48016892
H       15.06749732      14.45032609     -12.74204125
H       15.25865531      13.20655017     -14.01854038
C       15.25756815      13.39032048     -12.93927742
H       16.21048514      13.08129696     -12.49610604
36
Lattice="39.80213748 0.0 0.0 0.0 39.80213748 0.0 0.0 0.0 39.80213748" Properties=species:S:1:pos:R:3 dft_energy_ryd=-458.59538848 molecule_idx=12 crystal_idx=11 pbc="F F F"
N       17.20267854      20.27187458     -24.10228770
O       17.35853882      21.00295365     -18.66352561
N       17.36601755      20.10761591     -22.98068063
N       17.39907805      19.78893875     -21.77619967
H       17.40907751      19.14980837     -17.05153518
N       17.80185571      22.05557963     -21.15203972
C       17.86774941      20.18922014     -19.42897085
C       17.92023791      18.42939927     -17.68946103
H       18.02274015      16.88208121     -16.19357886
C       18.19123502      20.64759420     -20.90370965
C       18.22720960      18.80538995     -19.01319913
N       18.22646866      22.91908864     -20.36614346
C       18.26894784      17.16651053     -17.21688397
N       18.55575937      23.83332724     -19.75588887
C       18.88200434      17.88643779     -19.85686763
C       18.93993027      16.26568374     -18.05537421
H       19.10316806      18.13575655     -20.89243033
H       19.22178239      15.28020452     -17.68311842
C       19.24411741      16.62809564     -19.37177511
C       19.72482510      20.52179699     -21.20377065
H       19.76176559      15.92779749     -20.02731871
O       20.17942141      20.03950100     -22.23125057
O       20.39517677      21.04720442     -20.16076193
H       21.69088024      21.20534707     -17.95835094
H       21.84898508      22.76376151     -18.81731673
C       21.90399688      21.01892244     -20.10921142
H       21.89025817      19.03341121     -19.23402747
H       22.02370080      22.79340199     -21.35053106
H       22.09702111      19.04707894     -21.01351093
C       22.19428033      21.72180605     -18.78638956
C       22.35461709      19.55948392     -20.07931202
H       22.31273800      21.26399516     -22.23636274
C       22.47804393      21.79492488     -21.29275731
H       23.27719917      21.71232007     -18.60318104
H       23.44580951      19.53105016     -19.95251174
H       23.55905035      21.91900241     -21.13613108
17
Lattice="25.730709479999998 0.0 0.0 0.0 25.730709479999998 0.0 0.0 0.0 25.730709479999998" Properties=species:S:1:pos:R:3 dft_energy_ryd=-205.91995807 molecule_idx=13 crystal_idx=12 pbc="F F F"
O        9.59799048      11.94676308     -12.55612739
C       10.66373333      12.20471992     -13.16148618
N       10.94188208      13.43013164     -13.77716816
C       11.90623221      11.38625089     -13.18117736
H       12.04667874      10.44974510     -12.64988291
O       12.30831169      13.27633670     -14.34248373
C       12.84975504      12.13889220     -13.79891774
H       12.05777863      13.91077186     -12.51014905
N       12.94674441      13.82851704     -11.83517042
H       12.75200547      12.98234812     -11.28315271
H       14.29585421      14.54932369     -13.26763856
C       14.28610288      12.36727953     -13.42973552
H       14.66892618      11.52525476     -12.83825854
H       12.97319616      14.64238334     -11.20980589
C       14.26087696      13.68672593     -12.59542577
H       14.95494916      12.52579507     -14.28846058
H       15.08648537      13.74626426     -11.87246251
22
Lattice="23.82791796 0.0 0.0 0.0 23.82791796 0.0 0.0 0.0 23.82791796" Properties=species:S:1:pos:R:3 dft_energy_ryd=-221.97873288 molecule_idx=25 crystal_idx=23 pbc="F F F"
H        9.75907920     -12.84892626      11.36542541
H        9.61614134     -11.50029306      12.52080972
O       10.28833935     -10.62293927      10.22675516
C       10.31902209     -12.17590620      12.02291148
H       11.09178665     -12.65452047      14.04786294
N       11.10325314     -11.27063761      11.07256212
H       11.21988064     -14.00556878      12.89368552
C       11.25863639     -12.91661196      12.99789031
H       11.14101540      -9.69600679      12.44671719
H       11.47841208     -12.82147763       9.72101909
C       11.90351501     -10.29380655      11.93655565
C       12.10162739     -12.15019533      10.32013522
H       12.62166032     -10.85838991      13.95976736
H       12.62282572     -11.45873362       9.65015729
H       12.43146097      -9.65765038      11.21863303
N       12.72363313     -12.55581163      12.74639802
C       12.84725547     -11.03947309      12.90388527
C       13.04211703     -12.89469098      11.29048856
H       12.95053953     -13.98449179      11.23589915
O       13.54021508     -13.20560340      13.58898315
H       13.90675184     -10.82863893      12.72595595
H       14.09552619     -12.62232025      11.17019618
31
Lattice="41.82156468 0.0 0.0 0.0 41.82156468 0.0 0.0 0.0 41.82156468" Properties=species:S:1:pos:R:3 dft_energy_ryd=-311.14361921 molecule_idx=61 crystal_idx=54 pbc="F F F"
H       17.73600275      22.34706201     -18.81021203
N       17.99746730      22.34866717     -17.81872962
C       18.90003504      21.44578121     -17.60106699
H       18.98391929      21.86428980     -15.60879519
H       19.08819004      23.00126489     -20.33847129
H       19.26046903      18.76666645     -17.48810480
N       19.30459483      21.18805885     -16.29846327
C       19.54215899      20.57313112     -18.63293999
C       19.65862077      19.18642943     -18.41272589
H       20.07942073      22.79756523     -22.49740120
C       20.04716661      21.10640834     -19.82997219
C       20.08882130      22.55079109     -20.29334388
C       20.25139115      18.34894083     -19.36884326
H       20.24117576      20.82096804     -16.16422837
H       20.30309184      17.27548223     -19.18351586
C       20.67943422      20.26218628     -20.76425816
H       20.65983811      23.16525567     -19.57967156
C       20.76470598      22.49885287     -21.69011306
C       20.77521728      18.87988536     -20.54755302
C       21.18313371      21.05363259     -21.88368564
H       21.25324790      18.24800863     -21.29538467
H       21.63617226      23.16077368     -21.77847734
N       21.89714151      20.55115859     -22.84640460
N       22.24464605      21.46279151     -23.83208943
C       23.16969220      20.97521895     -24.63538970
H       23.00967434      22.57089344     -25.84959017
H       23.46383095      19.28271916     -23.63898723
N       23.46793640      21.66290341     -25.80066365
N       23.88554886      19.82006223     -24.40175130
H       24.45021183      21.67820996     -26.06495468
H       24.15576356      19.28466174     -25.22293270
26
Lattice="31.35420036 0.0 0.0 0.0 31.35420036 0.0 0.0 0.0 31.35420036" Properties=species:S:1:pos:R:3 dft_energy_ryd=-301.33379773 molecule_idx=69 crystal_idx=61 pbc="F F F"
N       12.44350175      17.59209515     -18.73352126
N       12.98222296      17.51043607     -17.72132694
N       13.42737931      17.57504382     -16.56218022
O       13.78201780      14.86554611     -17.39096963
H       14.52094480      12.88828150     -13.05667037
C       14.66213334      16.82766796     -16.26590547
C       14.47023068      15.31275689     -16.46398275
H       14.86720227      17.05105920     -15.21165776
O       15.24051696      12.54803041     -13.61992292
H       15.08688213      15.33169549     -13.69087907
N       15.18455883      14.49387909     -15.62692680
H       14.97149490      13.50068235     -15.73843624
H       15.56887680      17.25382973     -18.18065967
C       15.86025672      17.30166406     -17.12046705
H       16.05756621      18.35371995     -16.86723635
C       15.83150678      14.85319134     -14.36291693
C       16.27867946      13.53938935     -13.67792498
H       16.66966804      13.77999012     -12.67493000
H       17.08599894      13.08438109     -14.26773299
H       16.93842125      15.42831708     -17.28057523
C       17.13027433      16.44508274     -16.91215459
C       17.02895266      15.77377777     -14.43218815
C       17.58591615      16.41729537     -15.47079575
H       17.48931533      15.92166733     -13.44958239
H       17.93089341      16.86537404     -17.53686993
H       18.45592122      17.03647900     -15.23491955
19
Lattice="28.76212584 0.0 0.0 0.0 28.76212584 0.0 0.0 0.0 28.76212584" Properties=species:S:1:pos:R:3 dft_energy_ryd=-370.34159265 molecule_idx=86 crystal_idx=75 pbc="F F F"
H       12.36823256      13.32205885     -16.32232191
H       12.63483754      12.16412130     -14.98005498
C       13.12123284      12.86347232     -15.67283310
N       13.18199698      15.59613207     -16.47608272
N       13.16645408      17.81437080     -17.35248222
N       13.22325456      16.78115755     -16.86731480
H       13.80315555      12.27288271     -16.30425407
C       13.88479179      13.90448507     -14.90392942
C       13.91166688      15.28193749     -15.31089040
N       14.55641788      16.27985041     -14.70408547
C       14.61402764      13.56924276     -13.76596447
N       14.62940416      12.23641098     -13.35285116
N       15.22493723      15.88383929     -13.61164617
N       15.28447728      11.89909436     -12.33987903
C       15.30860687      14.61143546     -13.08888897
N       15.81143316      11.38921361     -11.46353390
N       15.95378845      16.72007435     -12.82419021
N       16.07921600      14.65642027     -11.99385342
N       16.44747748      15.95920925     -11.87035239
24
Lattice="31.488352560000003 0.0 0.0 0.0 31.488352560000003 0.0 0.0 0.0 31.488352560000003" Properties=species:S:1:pos:R:3 dft_energy_ryd=-354.02311451 molecule_idx=93 crystal_idx=81 pbc="F F F"
H       12.50773232      16.24072440     -12.99829009
H       12.61075538      14.55163670     -13.32344311
N       13.06692169      15.39336625     -12.98288611
H       14.54017186      17.35406433     -12.48035956
C       14.40222182      15.48794401     -13.31658106
N       14.99621648      16.70508827     -13.11374962
N       14.97284026      14.39977177     -13.79945838
H       15.20994686      14.60473329     -18.93267137
H       15.29831886      13.57386486     -16.66787757
H       15.71059548      16.54462052     -20.30030516
C       15.77122936      15.08892294     -18.13099086
H       16.02124288      16.66369523     -13.07745633
C       15.81838064      14.51072729     -16.86744940
N       16.45443688      16.84079892     -19.67584562
C       16.45121008      16.29955148     -18.39361528
S       16.56694179      14.39894446     -14.21947781
C       16.54016494      15.13623114     -15.83911850
H       16.69355879      17.82402531     -19.75634242
O       16.95901863      13.00701013     -14.34110058
C       17.17241566      16.91576453     -17.35093312
C       17.21351980      16.33883997     -16.08252065
O       17.36788903      15.29015030     -13.35651737
H       17.70526816      17.84882179     -17.54416138
H       17.77642699      16.80812674     -15.27627347
15
Lattice="23.61994236 0.0 0.0 0.0 23.61994236 0.0 0.0 0.0 23.61994236" Properties=species:S:1:pos:R:3 dft_energy_ryd=-294.3544391 molecule_idx=114 crystal_idx=97 pbc="F F F"
O        9.02611166      12.69364454     -13.05438281
H        9.63545896      10.20882505     -12.28414012
N       10.05422349      12.95877019     -12.43895736
H       10.29358513      10.67866760     -13.86603665
C       10.53527260      10.56800374     -12.80156899
N       10.89773677      11.88591229     -12.26847029
H       11.37801682       9.89176365     -12.64712298
H       11.53109140      14.09939158     -11.27790878
C       12.09275669      12.15770737     -11.56078501
N       12.25005007      13.40448126     -11.09839971
N       12.89932382      11.10457780     -11.44458387
H       13.14523477      13.57878021     -10.63100466
N       14.11792187      11.27018636     -10.77089044
O       14.50580947      12.39835598     -10.35379233
O       14.77180677      10.23533264     -10.63635639
15
Lattice="24.221272319999997 0.0 0.0 0.0 24.221272319999997 0.0 0.0 0.0 24.221272319999997" Properties=species:S:1:pos:R:3 dft_energy_ryd=-170.97367382 molecule_idx=115 crystal_idx=98 pbc="F F F"
H        9.31809707      11.84803805     -12.26519148
H        9.85566580      12.40177592     -13.74485709
H       10.02455188      10.79139412     -13.34361698
N       10.07170569      11.74853133     -12.96426341
H       10.80243718      13.77536356     -11.30300691
C       11.41013590      11.96520740     -12.35470280
C       11.62275370      13.09431994     -11.54790237
H       12.27524419      10.22418594     -13.33470363
C       12.45449657      11.08940253     -12.68776412
C       12.89420976      13.32591416     -11.04887898
H       13.07691507      14.18748622     -10.40713561
C       13.72143201      11.32844475     -12.17962990
C       14.01233757      12.45995226     -11.33455743
H       14.53848366      10.64723733     -12.41429056
S       15.56519128      12.75640388     -10.71315604
26
Lattice="34.68212748 0.0 0.0 0.0 34.68212748 0.0 0.0 0.0 34.68212748" Properties=species:S:1:pos:R:3 dft_energy_ryd=-268.05831974 molecule_idx=147 crystal_idx=127 pbc="F F F"
H       12.46789261      17.12873635     -16.80575174
H       13.19702781      19.17998578     -18.02208008
C       13.45977321      17.17509663     -17.25631077
C       13.86954719      18.32557702     -17.93755516
H       14.01899818      15.18543904     -16.62019687
C       14.33207626      16.08421338     -17.15300509
C       15.14533522      18.38468892     -18.50981873
H       15.46884971      19.28302553     -19.03846046
C       15.60465289      16.14360869     -17.72815095
C       16.02206764      17.29556019     -18.41399290
H       16.29338082      15.30159008     -17.64315481
C       17.41068476      17.36343012     -19.02874448
H       17.49901481      18.27015637     -19.64024687
H       17.58436254      16.47847573     -19.65623731
C       18.47529397      17.39645554     -17.95475177
N       18.83977262      18.60662638     -17.49579919
N       18.94248319      16.20900542     -17.52607873
C       19.75746386      18.56195117     -16.49345792
H       19.80117845      20.60976956     -16.38864217
C       19.86084710      16.30675310     -16.52717996
H       20.02703603      14.26492855     -16.43018623
N       20.14996881      19.75606005     -15.97144595
N       20.30737775      17.44844781     -15.96323218
N       20.38718898      15.13867660     -16.06792611
H       20.89064485      19.77612296     -15.28207343
H       21.01606977      15.15460793     -15.27450909
33
Lattice="47.70928512 0.0 0.0 0.0 47.70928512 0.0 0.0 0.0 47.70928512" Properties=species:S:1:pos:R:3 dft_energy_ryd=-435.14567714 molecule_idx=148 crystal_idx=128 pbc="F F F"
H       17.24086235      23.84582737      23.85306913
C       18.33108831      23.84618045      23.85180000
H       18.56630462      25.54358080      22.50942188
H       18.57010319      22.14789741      25.19228566
C       19.06391460      24.78152479      23.11634761
C       19.06608737      22.91095716      24.58528006
N       20.40831047      24.80273452      23.11216117
N       20.41048361      22.89083422      24.58691675
C       21.01086640      23.84720618      23.84917239
C       22.51497786      23.84803626      23.84806912
N       23.12588028      25.04833253      23.87620282
N       23.12674243      22.64821373      23.81920028
C       24.47148537      24.97978556      23.90219954
C       24.47223170      22.71760264      23.79196119
N       24.65091531      27.37508558      23.49867757
N       24.65227288      20.32176952      24.19274692
H       24.89620049      29.41115852      23.18189158
H       24.89930198      18.28577800      24.50905757
N       25.19894617      23.84895336      23.84676941
C       25.23906043      26.27029045      24.00226347
C       25.24056826      21.42758804      23.69155713
C       25.36468693      28.51074578      23.58988491
C       25.36775452      19.18706917      24.10292577
N       26.45353626      26.19625032      24.58740108
N       26.45597425      21.50310453      23.10856193
C       26.63359462      28.55530096      24.17352054
C       26.63854064      19.14446094      23.52334338
C       27.13728954      27.34931716      24.66718923
C       27.14151612      20.35103496      23.03024469
H       27.19946918      29.48388311      24.24765006
H       27.20644267      18.21687950      23.45212994
H       28.11938801      27.29730081      25.14655143
H       28.12438549      20.40449812      22.55272798
19
Lattice="32.57538228 0.0 0.0 0.0 32.57538228 0.0 0.0 0.0 32.57538228" Properties=species:S:1:pos:R:3 dft_energy_ryd=-341.02867624 molecule_idx=154 crystal_idx=134 pbc="F F F"
H       13.29982983      17.29860946     -18.04623347
H       13.49701628      18.51345258     -16.74763131
H       13.77562837      18.99160924     -18.46986721
C       13.86000499      18.18873087     -17.73116025
S       14.15100822      14.58424572     -14.14936828
N       14.73082195      16.35364736     -16.02671541
O       15.21921732      13.57753293     -13.37265138
O       15.28297048      17.89008238     -17.67432434
C       15.25392210      15.42064436     -15.20089054
H       16.10461996      13.81404014     -13.78954374
C       15.65678220      16.94024322     -16.79697898
N       16.54541653      15.05753908     -15.09941335
N       16.98541429      16.68596528     -16.80602159
C       17.35837287      15.73869236     -15.93866697
O       18.65573092      15.39217845     -15.85433806
H       19.29336658      15.90779604     -17.79410659
C       19.56622631      16.09730152     -16.74794665
H       19.52787247      17.17735319     -16.55755287
H       20.55432293      15.68888031     -16.51513370
28
Lattice="33.23518884 0.0 0.0 0.0 33.23518884 0.0 0.0 0.0 33.23518884" Properties=species:S:1:pos:R:3 dft_energy_ryd=-417.76593842 molecule_idx=165 crystal_idx=144 pbc="F F F"
H       14.51311250      15.72265655     -16.78768045
H       14.79337377      18.03098900     -16.25797703
H       15.22193841      16.04218960     -18.40422552
C       15.34885302      16.18099679     -17.32712952
O       15.32648774      19.17939743     -14.56233057
C       15.56488153      17.65684967     -16.93668975
H       15.65070110      18.31436714     -17.80829169
H       15.76539131      15.01924841     -15.02891834
O       16.16264208      12.37987965     -18.72280016
H       16.18537511      17.25370892     -14.29115725
N       16.27685056      13.59506893     -18.49189297
O       16.26837370      14.48400956     -19.40621245
N       16.32730983      19.80834835     -15.04132698
N       16.41397231      13.89602095     -17.16543484
O       16.57134695      20.99819047     -14.78165001
N       16.56792575      15.35527602     -16.93764589
C       16.69674789      15.43019371     -15.43284835
N       16.88446485      17.81774619     -16.19221264
C       16.94410187      16.88864371     -14.98949264
N       17.23171279      19.22874781     -15.88648057
H       17.52156271      14.76289700     -15.16183016
H       17.73135230      15.80924018     -18.62871411
C       17.83435141      15.93703952     -17.54707209
H       17.93340626      18.10069895     -17.98803138
H       17.94274995      17.03537722     -14.56448984
C       17.99480921      17.41599356     -17.13554491
H       18.64669956      15.30457999     -17.17338550
H       18.93214958      17.60428871     -16.60117849
37
Lattice="43.599465 0.0 0.0 0.0 43.599465 0.0 0.0 0.0 43.599465" Properties=species:S:1:pos:R:3 dft_energy_ryd=-392.63905186 molecule_idx=191 crystal_idx=166 pbc="F F F"
H       17.94390187      21.73039170     -20.79977525
H       18.02783534      22.66209705     -22.75133564
H       18.58741691      22.71947421     -18.57249257
H       18.81378549      23.91909921     -19.86667367
H       18.91808488      24.85403305     -23.63726282
H       19.03611844      24.80388156     -21.86193543
C       19.00031950      21.84017520     -20.51566088
C       19.16725236      22.95543748     -19.47622047
C       19.10819462      22.84661996     -22.83571529
H       19.34104997      20.88546995     -20.09686046
C       19.40606153      24.35018081     -22.79076960
H       19.44973106      22.42975057     -23.79170802
N       19.75132420      22.08704218     -21.75423774
H       20.22501676      23.05286775     -19.19661735
H       20.48862815      24.51902165     -22.86223670
C       21.06180197      21.73522061     -21.84891489
N       21.61934329      21.07227842     -20.79891707
N       21.72387316      22.05593735     -22.99498659
H       21.80267645      19.85314808     -18.61151584
H       22.23293632      23.12351911     -25.22654561
C       22.89373273      20.71618132     -20.99840829
C       22.84542258      19.61137426     -18.77069391
C       22.99295559      21.63001231     -23.02295441
C       23.22203468      22.68510818     -25.26568497
N       23.48401981      19.99623746     -19.93499627
N       23.65852885      20.95566645     -22.07361980
N       23.70011174      21.93329772     -24.20845637
H       23.63157390      18.48657342     -17.04423466
C       23.77985573      18.93443199     -18.02111429
C       24.22239214      22.70331648     -26.21053412
H       24.20218827      23.20211679     -27.17307689
N       24.79112957      19.59467369     -19.97089242
N       24.96639087      21.46550559     -24.43083758
C       24.96462292      18.95539115     -18.81279432
C       25.27585307      21.93064699     -25.64226586
H       25.93806674      18.53209129     -18.58248956
H       26.24731539      21.69327555     -26.06811113
30
Lattice="37.894583159999996 0.0 0.0 0.0 37.894583159999996 0.0 0.0 0.0 37.894583159999996" Properties=species:S:1:pos:R:3 dft_energy_ryd=-642.52662163 molecule_idx=238 crystal_idx=206 pbc="F F F"
H       16.14270025      19.50937382      16.67920178
O       16.30939551      18.09393965      18.65179423
N       16.84939591      20.79621782      15.11033204
H       16.90976492      18.74091965      15.24470858
N       16.89451666      21.87099475      15.72775197
C       16.95941265      19.57690928      15.94800735
N       16.94640932      22.92953166      16.17507053
N       17.38341578      17.76074261      19.18173550
H       17.35411899      20.29165394      18.42925472
O       17.58047137      16.74902577      19.87366716
N       18.19118891      19.48781338      16.72180076
C       18.28469573      19.78605165      18.14737769
N       18.46858137      18.60362896      18.98242151
H       19.13915826      20.43887589      18.35308067
O       19.27905771      18.88950528      14.84696212
O       19.66185869      20.58343311      20.79574085
N       19.36924433      19.12952070      16.05401282
H       19.52704161      16.35579674      21.52801848
N       19.79948096      19.64889828      21.60387684
N       19.69452773      18.35495416      21.06735635
C       19.73252581      18.24613516      19.61186914
H       19.81520395      17.44599868      22.93248819
O       19.97480134      19.75016460      22.82353016
H       19.98566945      17.20252953      19.38934373
C       20.08812693      17.22054943      21.89486297
O       20.40132765      19.08001162      16.74856205
H       20.48738606      18.90689222      19.17251450
N       21.51966121      16.86072947      21.75712640
N       22.33769917      17.66881252      22.23564646
N       23.20928354      18.31651136      22.60800613
16
Lattice="26.01901764 0.0 0.0 0.0 26.01901764 0.0 0.0 0.0 26.01901764" Properties=species:S:1:pos:R:3 dft_energy_ryd=-278.97550974 molecule_idx=243 crystal_idx=209 pbc="F F F"
H       11.09949648      14.41475954     -14.46708877
H       11.81346212      12.90571595     -16.18357365
N       12.00933365      14.29750227     -14.03789645
H       12.12929494      14.60141746     -13.07118399
N       12.65102424      12.71254546     -15.64648346
O       12.12155815      11.72104330     -12.06047381
C       12.81203090      13.29549658     -14.43278950
O       12.66907680      12.07296727      -9.15845578
H       13.10267634      11.82138781     -15.82338287
C       12.98642296      12.41504267     -11.53195170
C       13.42124624      12.59201148     -10.00083872
N       13.80777115      13.26941036     -12.31957082
N       13.89304291      12.98378583     -13.68009736
O       14.51121606      13.25792863      -9.92131338
H       14.36698601      12.11164874     -13.93303609
H       14.64199456      13.56397012     -11.76849705
16
Lattice="26.01901764 0.0 0.0 0.0 26.01901764 0.0 0.0 0.0 26.01901764" Properties=species:S:1:pos:R:3 dft_energy_ryd=-278.97550974 molecule_idx=244 crystal_idx=209 pbc="F F F"
H       11.09949648      11.58981964     -14.46708877
H       11.81346212      13.09886323     -16.18357365
N       12.00933365      11.70707691     -14.03789645
H       12.12929494      11.40316172     -13.07118399
N       12.65102424      13.29203372     -15.64648346
O       12.12155815      14.28353588     -12.06047381
C       12.81203090      12.70908260     -14.43278950
O       12.66907680      13.93161191      -9.15845578
H       13.10267634      14.18319137     -15.82338287
C       12.98642296      13.58953651     -11.53195170
C       13.42124624      13.41256770     -10.00083872
N       13.80777115      12.73516882     -12.31957082
N       13.89304291      13.02079335     -13.68009736
O       14.51121606      12.74665055      -9.92131338
H       14.36698601      13.89293044     -13.93303609
H       14.64199456      12.44060906     -11.76849705
25
Lattice="30.51615924 0.0 0.0 0.0 30.51615924 0.0 0.0 0.0 30.51615924" Properties=species:S:1:pos:R:3 dft_energy_ryd=-347.28707254 molecule_idx=254 crystal_idx=218 pbc="F F F"
H       12.96499420      15.58221935     -16.38596225
O       13.85560631      15.20703655     -16.51511282
H       14.10180692      13.81958609     -15.40475168
N       14.80573721      16.15212807     -12.31072256
N       14.30415429      13.30218204     -14.52948032
H       14.53372690      12.45667458     -12.06893917
H       14.87513953      14.07453978     -11.44527356
C       14.56787766      14.02645832     -13.42989192
N       14.93416482      17.42612823     -12.62502138
H       14.23836194      12.29113142     -14.49113026
C       14.69780187      15.44493362     -13.48890657
N       14.73509272      13.43629038     -12.23041008
N       14.91386436      17.59927356     -13.98604745
C       14.76051974      16.38151648     -14.54678434
H       14.61583442      17.18083402     -16.50657295
C       14.82078018      16.20759606     -16.03329244
H       15.38323868      15.46250388     -18.48479682
H       16.30074580      14.64268992     -16.18699070
C       16.21086335      15.70664424     -16.49984700
C       16.33222397      15.78646695     -18.02527695
H       16.52445300      16.83489320     -18.29320910
H       17.24627127      14.09230356     -18.40964356
H       16.99182420      16.77893836     -15.03842576
O       17.26202758      16.49009934     -15.93397956
O       17.44216479      15.03620761     -18.54880653
19
Lattice="30.093222599999997 0.0 0.0 0.0 30.093222599999997 0.0 0.0 0.0 30.093222599999997" Properties=species:S:1:pos:R:3 dft_energy_ryd=-346.5107885 molecule_idx=288 crystal_idx=248 pbc="F F F"
H       11.40153653      14.59991944     -14.50989232
H       11.77978895      16.17524138     -15.11539726
N       12.07425576      15.21592532     -14.95836391
O       12.83831402      13.04923260     -13.74635464
C       13.39388379      15.02259001     -14.60924828
H       13.31942835      12.32905958     -13.29988703
N       13.89049466      13.96948305     -14.02266741
N       13.92763618      17.36833475     -14.81823455
C       14.34091504      16.11296364     -14.89083379
O       15.04406527      18.15154153     -15.04406546
C       15.74716431      16.11314725     -15.19727168
N       16.16046237      17.36826574     -15.26988178
N       16.19765773      13.96958353     -16.06538635
H       16.76869493      12.32905208     -16.78822230
C       16.69432547      15.02241297     -15.47892156
O       17.24980687      13.04924848     -16.34176341
N       18.01369023      15.21588044     -15.12979433
H       18.30837822      16.17533444     -14.97268563
H       18.68661372      14.59989590     -15.57824053
28
Lattice="42.98125356 0.0 0.0 0.0 42.98125356 0.0 0.0 0.0 42.98125356" Properties=species:S:1:pos:R:3 dft_energy_ryd=-458.93784996 molecule_idx=309 crystal_idx=267 pbc="F F F"
H       18.00505699      21.62561784     -17.42119985
H       18.83400401      20.08281660     -17.16930394
C       18.96613842      21.17267769     -17.14103234
N       19.01068978      24.67990716     -23.66418941
H       19.25731499      21.49682878     -16.13793154
H       19.41342748      22.85161640     -21.33126132
O       19.66753044      21.12657568     -19.40603895
N       19.94355470      24.01899808     -23.54111302
C       20.02656186      21.57812440     -18.12669333
C       20.32310046      22.25726044     -21.41476298
C       20.60477357      21.32337126     -20.42779854
N       21.00137064      23.37317855     -23.53399583
O       21.04281756      22.20610695     -17.90409787